/*--------------------------------*- C++ -*----------------------------------*\
  =========                 |
  \\      /  F ield         | OpenFOAM: The Open Source CFD Toolbox
   \\    /   O peration     | Website:  https://openfoam.org
    \\  /    A nd           | Version:  13
     \\/     M anipulation  |
\*---------------------------------------------------------------------------*/
FoamFile
{
    format      ascii;
    class       volScalarField;
    location    "50";
    object      p;
}
// * * * * * * * * * * * * * * * * * * * * * * * * * * * * * * * * * * * * * //

dimensions      [0 2 -2 0 0 0 0];

internalField   nonuniform List<scalar> 
5760
(
0.83930735
0.77210077
0.74031338
0.72806092
0.71831852
0.70841982
0.69932981
0.691228
0.6837849
0.67674272
0.66998051
0.66343176
0.65704459
0.65077714
0.64459802
0.63848406
0.63241763
0.62638513
0.62037664
0.61438536
0.60840629
0.60243447
0.59646425
0.59049003
0.5845084
0.57851986
0.57252888
0.56654188
0.560564
0.55459608
0.54863301
0.54266504
0.53668585
0.53068147
0.5246386
0.51855413
0.51243068
0.50627677
0.5001053
0.49393675
0.48778529
0.48165988
0.47556896
0.46951921
0.46351073
0.45753171
0.45156895
0.44561008
0.4396502
0.43368334
0.42770377
0.42170225
0.41567127
0.4096056
0.40350272
0.39736284
0.39118619
0.38497655
0.37873919
0.37248513
0.36623378
0.35996816
0.35385632
0.34762315
0.34131133
0.33522673
0.32908535
0.32281081
0.31657921
0.31041474
0.30421522
0.29794205
0.29163984
0.2853549
0.27909549
0.27284795
0.26660209
0.26035918
0.25412506
0.24790186
0.24168454
0.23546352
0.22922876
0.2229728
0.21669023
0.21037438
0.20400944
0.1975595
0.19093619
0.18409256
0.17552665
0.17522734
0.1739079
0.16282716
0.15410109
0.14855163
0.14294591
0.13656374
0.1300354
0.12369899
0.11749866
0.11131973
0.10512132
0.098912909
0.092714802
0.086542329
0.080403719
0.074301215
0.068231309
0.062186776
0.056158742
0.050139959
0.044125363
0.038111077
0.032090497
0.026050841
0.019967011
0.013782298
0.0073615987
-0.00049294687
0.80156608
0.76315368
0.73744586
0.72534631
0.71610864
0.70686463
0.69819002
0.69032877
0.68305075
0.67613389
0.66946783
0.66299343
0.65666503
0.65044502
0.64430474
0.63822294
0.6321835
0.62617403
0.62018538
0.61421111
0.60824638
0.60228665
0.59632699
0.59036271
0.58439099
0.57841235
0.57243062
0.56645133
0.56047881
0.55451388
0.54855224
0.54258476
0.53660672
0.53060366
0.52456437
0.51848501
0.51236797
0.50622194
0.50005949
0.49389819
0.48775212
0.48163148
0.47554403
0.46949538
0.46348467
0.45750239
0.45153633
0.44557548
0.43961384
0.43364539
0.42766397
0.42166094
0.41562908
0.4095631
0.40346071
0.39732168
0.39114693
0.38493997
0.37870668
0.37245717
0.36620902
0.35996137
0.3537946
0.34761604
0.34133363
0.33518501
0.32903986
0.32280077
0.31656958
0.31038431
0.30417796
0.29791336
0.29162016
0.28533753
0.27907606
0.27282633
0.26657967
0.26033647
0.25410101
0.24787477
0.24165308
0.23542735
0.22918831
0.22292894
0.21664411
0.21032807
0.2039676
0.19753354
0.19096606
0.1842274
0.17658598
0.17437903
0.17186384
0.16271883
0.15449489
0.14855422
0.14276941
0.13642831
0.12994679
0.12361367
0.11740012
0.11121082
0.10500793
0.098799107
0.092602505
0.086432085
0.080294847
0.074192521
0.06812155
0.06207551
0.056046258
0.050027233
0.044013348
0.038000837
0.031983527
0.025951167
0.01988624
0.013760709
0.0075512906
0.0015993772
0.78039655
0.76021063
0.73926301
0.72632386
0.71673211
0.70762399
0.69899737
0.69107721
0.68372401
0.67674223
0.67001882
0.66349211
0.65711648
0.65085432
0.64467637
0.63856079
0.63249112
0.62645476
0.62044209
0.61444586
0.6084605
0.60248132
0.59650394
0.5905246
0.58454098
0.57855319
0.57256361
0.56657589
0.56059286
0.55461483
0.54863809
0.54265693
0.53666663
0.53065329
0.52460765
0.51852581
0.51240951
0.50626775
0.50011135
0.49395429
0.48781039
0.48169101
0.47560297
0.46954951
0.46352952
0.45753609
0.45155977
0.44559055
0.43962153
0.43364588
0.42765727
0.42164778
0.4156107
0.40954097
0.40343612
0.39729595
0.39112172
0.38491738
0.37868902
0.37244624
0.36620385
0.35997885
0.35377219
0.34760886
0.34135083
0.33514947
0.32900994
0.32281175
0.31657696
0.31036403
0.30415198
0.29790441
0.29162876
0.28535352
0.27909331
0.27284554
0.26660397
0.26036726
0.25413713
0.24791395
0.24169388
0.2354701
0.22923486
0.22298205
0.21670735
0.21040723
0.20407455
0.19769549
0.19125307
0.1847872
0.17840166
0.17403089
0.16970934
0.16255227
0.15498858
0.14864677
0.14268941
0.1364575
0.13008345
0.12378249
0.11756892
0.11138081
0.10518685
0.098991555
0.092809471
0.086652034
0.080524453
0.074427598
0.068358232
0.062311274
0.056280147
0.05025934
0.044244046
0.038230681
0.032214405
0.026189396
0.020149324
0.014094655
0.0080668572
0.0023143407
0.76489036
0.75269918
0.73586391
0.7233451
0.71399442
0.70542453
0.69723927
0.68960076
0.68244999
0.67563292
0.66904508
0.66262916
0.65634497
0.65015944
0.64404639
0.63798626
0.63196451
0.62597006
0.61999415
0.61402988
0.60807195
0.60211655
0.59616072
0.59020237
0.58424004
0.57827349
0.57230348
0.56633163
0.56035928
0.55438679
0.54841209
0.54243279
0.53644505
0.53043645
0.52439951
0.51833068
0.51223159
0.50610978
0.49997376
0.49383468
0.4877056
0.48159789
0.47551699
0.46946462
0.46344008
0.45743977
0.451457
0.44548304
0.43950996
0.4335303
0.42753764
0.42152495
0.41548621
0.40941655
0.40331349
0.39717673
0.39100807
0.38481167
0.37859382
0.37236292
0.36613111
0.35990456
0.35370813
0.3475383
0.34129622
0.3350837
0.32894349
0.32275978
0.31651786
0.31028611
0.30407341
0.29784331
0.29158457
0.2853162
0.27905666
0.27280986
0.26657151
0.26033813
0.25410859
0.2478824
0.24165696
0.23542768
0.22918862
0.22293474
0.21666256
0.2103707
0.20405723
0.19771955
0.19136624
0.18506322
0.17910552
0.17349622
0.16817419
0.16206644
0.15507846
0.14855449
0.14246936
0.13631075
0.13001702
0.12373187
0.11750485
0.11130766
0.10511596
0.098929983
0.092759176
0.086611622
0.080490371
0.074395649
0.068324833
0.062274669
0.056240326
0.050217542
0.044201702
0.038189547
0.0321776
0.026164374
0.02015221
0.014156028
0.0082289932
0.0025417867
0.75325604
0.74551597
0.73275557
0.72168617
0.71290896
0.70487718
0.69710739
0.68970966
0.68269313
0.67595791
0.66941965
0.66303006
0.65675624
0.6505707
0.644451
0.63837998
0.6323448
0.62633545
0.62034364
0.61436261
0.60838733
0.60241471
0.596443
0.59047119
0.58449812
0.57852257
0.57254331
0.56655977
0.56057199
0.55458046
0.54858489
0.5425881
0.53658464
0.53056405
0.52452057
0.51845142
0.51235734
0.50624333
0.50011592
0.49398433
0.4878598
0.48175223
0.47566618
0.4696032
0.46356389
0.45754722
0.45154878
0.4455607
0.43957462
0.43358261
0.42757838
0.42155565
0.41550902
0.40943385
0.40332759
0.39719001
0.39102319
0.38483153
0.37862108
0.37239859
0.36617397
0.35994961
0.35375406
0.34756942
0.34133958
0.3351267
0.32896714
0.32277792
0.31653702
0.31030244
0.30409254
0.29787471
0.29162932
0.28536898
0.27911366
0.27287115
0.26663813
0.26040925
0.25418137
0.24795374
0.24172527
0.23549355
0.22925438
0.22300381
0.21673934
0.21046162
0.20417318
0.19787982
0.19160331
0.185409
0.17959308
0.17341842
0.16748443
0.16177254
0.15525866
0.14872727
0.14253245
0.13638259
0.13013663
0.1238694
0.11764074
0.11144563
0.1052655
0.099096122
0.092941702
0.086806979
0.080693431
0.07460114
0.068528575
0.062474235
0.05643498
0.050407583
0.044387866
0.038373098
0.032361499
0.026355225
0.020362213
0.014402987
0.008522454
0.0028249455
0.74409343
0.73883297
0.72901654
0.71927986
0.71096106
0.70328885
0.69583745
0.68865516
0.68177741
0.67514363
0.66868582
0.66236082
0.65613948
0.64999767
0.64391529
0.63787675
0.63187015
0.62588607
0.61991656
0.61395527
0.60799771
0.60204169
0.5960864
0.59013144
0.58417543
0.57821606
0.57225035
0.56627627
0.56029328
0.55430295
0.54830738
0.54231288
0.53631292
0.5302995
0.52426823
0.51821655
0.51214373
0.50605239
0.49994743
0.49383608
0.48772695
0.48162833
0.47554501
0.46947986
0.46343487
0.45741075
0.45140457
0.44540951
0.43941735
0.43342019
0.42741188
0.42138664
0.41533953
0.40926611
0.40316387
0.39703257
0.39087438
0.38469354
0.37849546
0.37228551
0.36607085
0.35984921
0.35365436
0.347468
0.34124895
0.33503545
0.3288592
0.32266954
0.3164419
0.31021452
0.30400705
0.29779628
0.29156231
0.28531256
0.27906482
0.27282764
0.26659815
0.26037033
0.25414033
0.24790782
0.24167309
0.2354356
0.22919261
0.22294134
0.21668042
0.21041229
0.20414232
0.19788075
0.19165399
0.18551869
0.17972518
0.17323597
0.16690696
0.16132019
0.15513537
0.14865183
0.14236896
0.1362032
0.12999787
0.1237638
0.11755075
0.11136818
0.10520418
0.099052623
0.092913921
0.086790693
0.080683662
0.074593521
0.068519802
0.062462587
0.056419905
0.050389616
0.044368117
0.038353742
0.032346291
0.026350699
0.020377669
0.014447896
0.0085950193
0.0028937343
0.7366449
0.73286867
0.72521279
0.71681682
0.70914873
0.70195678
0.6949248
0.68805904
0.6814038
0.67493208
0.6685964
0.6623631
0.65620972
0.65011792
0.64407215
0.63805999
0.63207175
0.62609962
0.62013707
0.61417909
0.60822253
0.60226628
0.59631026
0.59035422
0.58439633
0.57843332
0.57246123
0.56647745
0.56048184
0.55447725
0.548468
0.542464
0.53645616
0.53043872
0.5244083
0.51836201
0.51229773
0.50621615
0.50012035
0.4940154
0.48790767
0.4818047
0.47571242
0.46963525
0.46357616
0.45753664
0.45151483
0.44550507
0.4394998
0.43349132
0.42747344
0.4214405
0.41538777
0.40931102
0.40320778
0.39707773
0.39092281
0.38474686
0.37855456
0.3723497
0.36613764
0.35991448
0.35371617
0.34752582
0.34130665
0.33508923
0.32890231
0.32271203
0.31649288
0.31026877
0.30405978
0.29785227
0.29162832
0.28538996
0.27915047
0.27291757
0.26668931
0.26046036
0.25422732
0.24799046
0.24175103
0.23550969
0.22926494
0.22301526
0.21676048
0.21050438
0.20425398
0.19802144
0.19183261
0.18572834
0.17990998
0.17325054
0.16668779
0.16111849
0.15513679
0.14872844
0.14241048
0.13623946
0.130072
0.1238734
0.11767853
0.11150656
0.10535332
0.09921295
0.093083527
0.086966083
0.080861022
0.074769449
0.068691648
0.062628515
0.056578959
0.050541781
0.044514474
0.038496678
0.032489781
0.026500294
0.020539466
0.014625288
0.0087791696
0.0030497364
0.73044205
0.72759898
0.72149913
0.71426929
0.70724268
0.70047926
0.69379416
0.68718665
0.68070721
0.67435626
0.66810699
0.6619362
0.6558279
0.64976883
0.6437472
0.63775305
0.63177826
0.62581621
0.61986153
0.61391032
0.60796027
0.60201067
0.59606126
0.59011128
0.58415815
0.57819802
0.57222665
0.56624178
0.56024414
0.55423808
0.54822945
0.54222836
0.53622531
0.53021611
0.52419754
0.51816612
0.51211846
0.50605348
0.49997241
0.49387866
0.48777753
0.4816766
0.47558288
0.46950191
0.46343721
0.4573908
0.45136179
0.44534577
0.43933595
0.43332472
0.42730561
0.4212728
0.41522164
0.4091481
0.40304976
0.39692609
0.39077861
0.38461057
0.37842591
0.37222781
0.36602068
0.35979812
0.35359942
0.34740908
0.34119279
0.33497765
0.32878841
0.32259956
0.31638847
0.31017144
0.3039671
0.29776735
0.29155567
0.28532958
0.2790981
0.27286821
0.26663946
0.26040808
0.25417147
0.2479303
0.24168623
0.23544079
0.22919365
0.2229447
0.21669494
0.21044902
0.20421423
0.19800244
0.19183663
0.18574564
0.17989342
0.17312627
0.16641726
0.16082339
0.15496056
0.14862659
0.14230048
0.13612161
0.12997463
0.12380085
0.11762098
0.1114587
0.10531566
0.099186583
0.093067516
0.086958046
0.080857997
0.07476867
0.068690585
0.062625276
0.056572411
0.050532144
0.044503331
0.038487144
0.032485979
0.026506838
0.020559806
0.01465901
0.0088170388
0.0030767435
0.72518597
0.72295871
0.71799065
0.71174513
0.70534543
0.69901482
0.69268221
0.68635627
0.68008879
0.6738976
0.66777232
0.66169913
0.65566777
0.64966951
0.6436961
0.63774017
0.63179556
0.62585736
0.61992178
0.61398628
0.60804942
0.60211076
0.5961698
0.59022537
0.58427471
0.57831423
0.57234042
0.5663521
0.56035122
0.55434306
0.54833403
0.54233354
0.53633246
0.53032721
0.52431448
0.51829018
0.51224994
0.50619143
0.50011467
0.49402242
0.48791973
0.48181436
0.47571391
0.46962461
0.46355047
0.45749404
0.45145525
0.44543063
0.43941385
0.43339717
0.42737369
0.42133736
0.41528361
0.40920859
0.40310991
0.39698678
0.39084021
0.38467298
0.37848871
0.37229019
0.36608157
0.35985728
0.35365494
0.34746241
0.34124647
0.3350318
0.32884036
0.32265154
0.31644621
0.31023612
0.30403665
0.29784203
0.29163733
0.28541784
0.27918984
0.27295993
0.266729
0.26049463
0.25425472
0.24800998
0.24176226
0.23551382
0.22926555
0.22301866
0.21677507
0.21053958
0.20431883
0.19812339
0.19197242
0.18588239
0.1799892
0.17315813
0.16636252
0.16073216
0.15493178
0.14865702
0.14233756
0.13615547
0.13002361
0.12387259
0.1177105
0.11156098
0.10542912
0.099310411
0.093199726
0.087095667
0.080997771
0.074907503
0.068825753
0.06275474
0.056695211
0.050648805
0.04461589
0.038598819
0.032600431
0.026627152
0.020687019
0.014790216
0.0089420234
0.0031769195
0.7206767
0.7188728
0.7147382
0.70930231
0.7034791
0.69755852
0.69155256
0.68548701
0.67941568
0.67336894
0.66735097
0.6613578
0.6553856
0.64943056
0.64348834
0.63755459
0.63162547
0.62569803
0.61977001
0.61384001
0.60790709
0.60197078
0.59603028
0.59008427
0.58413022
0.57816533
0.57218723
0.56619591
0.56019405
0.55418727
0.54818143
0.54218288
0.53618532
0.53018502
0.52417811
0.51816007
0.512126
0.50607293
0.50000042
0.49391098
0.48780956
0.48170388
0.47560171
0.4695098
0.46343255
0.45737291
0.4513312
0.44530435
0.43928618
0.43326874
0.42724484
0.42120831
0.41515468
0.40908033
0.40298283
0.39686118
0.390716
0.38454988
0.37836642
0.37216891
0.36596217
0.35973894
0.35353689
0.34734664
0.34113505
0.33492478
0.32873598
0.32255092
0.31635307
0.31015116
0.30395748
0.29776747
0.2915682
0.28535433
0.27913034
0.27290211
0.26667108
0.26043562
0.25419396
0.24794692
0.24169665
0.2354463
0.22919789
0.22295378
0.21671629
0.21048992
0.20428003
0.19809535
0.19195155
0.18585759
0.17993135
0.17305807
0.16620754
0.16054119
0.15477334
0.14854616
0.14224417
0.13606689
0.12994919
0.12381878
0.11767423
0.11153737
0.10541552
0.099305449
0.093201664
0.087102297
0.081006638
0.074916388
0.068832781
0.06275887
0.056696404
0.050648411
0.044616287
0.038603056
0.032611203
0.02664602
0.020713169
0.014819568
0.0089664335
0.0031913293
0.71677531
0.71527316
0.71176214
0.70698537
0.70167722
0.69614029
0.69044143
0.68462532
0.67874918
0.67285225
0.66695025
0.6610479
0.65514711
0.64924836
0.64335074
0.63745261
0.63155226
0.62564838
0.61973994
0.6138263
0.60790684
0.60198116
0.59604841
0.59010754
0.58415667
0.57819412
0.57221862
0.5662311
0.56023453
0.55423405
0.54823445
0.54223988
0.53624664
0.53025045
0.52424723
0.51823246
0.51220125
0.50615063
0.50008007
0.49399206
0.48789142
0.48178577
0.47568293
0.46958985
0.46351114
0.45744975
0.45140597
0.44537678
0.43935606
0.43333585
0.42730892
0.42126912
0.41521219
0.40913463
0.40303409
0.39690943
0.39076118
0.38459199
0.37840585
0.37220649
0.36599917
0.3597775
0.35357497
0.34738614
0.3411777
0.33497055
0.32878369
0.32260104
0.31640776
0.31021098
0.3040208
0.29783328
0.29163718
0.28542714
0.27920625
0.27297942
0.26674816
0.26051137
0.25426771
0.24801837
0.24176596
0.23551445
0.22926665
0.22302555
0.21679349
0.21057424
0.20437178
0.19819311
0.19205099
0.18594791
0.17998851
0.1730895
0.16620723
0.16050869
0.15475372
0.14856017
0.14227667
0.1361058
0.12999745
0.12388065
0.11774816
0.11161973
0.10550399
0.099398848
0.093298749
0.087201461
0.081106028
0.075014347
0.068928008
0.062850809
0.056785299
0.050735468
0.044703278
0.038691937
0.032703308
0.026741462
0.020810041
0.014913646
0.0090505061
0.0032569604
0.71349611
0.71220717
0.70915397
0.70489402
0.70002139
0.69482397
0.68939933
0.68380765
0.67810982
0.67235106
0.66655564
0.6607356
0.65489809
0.64904759
0.64318652
0.63731591
0.63143616
0.62554754
0.61965018
0.61374423
0.60782957
0.60190614
0.59597346
0.59003105
0.58407787
0.57811319
0.5721366
0.56614948
0.56015466
0.55415662
0.54815903
0.54216412
0.53617039
0.53017355
0.52416946
0.51815396
0.51212245
0.5060722
0.50000271
0.49391636
0.48781773
0.48171415
0.47561314
0.46952151
0.46344364
0.45738228
0.45133752
0.44530639
0.43928297
0.43325953
0.42722898
0.42118532
0.41512441
0.40904292
0.4029386
0.39681044
0.390659
0.38448726
0.3782996
0.37210048
0.36589581
0.3596767
0.35347592
0.34729079
0.34108727
0.33488462
0.32870108
0.32252171
0.31633298
0.31014119
0.30395494
0.29777048
0.29157775
0.28537159
0.27915412
0.27292935
0.2666987
0.26046154
0.25421699
0.24796676
0.2417138
0.2354626
0.22921636
0.22297838
0.21675074
0.21053664
0.20433892
0.19816326
0.19202043
0.1859098
0.17992818
0.17301469
0.16611376
0.16038999
0.15463974
0.14847123
0.14220659
0.13604491
0.12994545
0.12384041
0.11771943
0.11160036
0.10549215
0.099393556
0.093298976
0.087205992
0.081113458
0.075023512
0.068938025
0.062861393
0.056796621
0.050748301
0.044718579
0.038710689
0.032725874
0.026767291
0.020837098
0.014938457
0.0090683976
0.0032675867
0.71071134
0.70957936
0.70687228
0.70302236
0.69851587
0.69361578
0.68843479
0.68304446
0.67750924
0.67187874
0.66618379
0.66044256
0.65466687
0.64886484
0.64304184
0.63720125
0.63134532
0.62547567
0.6195934
0.61369938
0.60779403
0.60187771
0.5959504
0.59001216
0.58406256
0.57810157
0.57212928
0.56614723
0.56015798
0.55416526
0.54817197
0.54218
0.53618823
0.53019275
0.52418975
0.51817552
0.51214591
0.50609841
0.50003254
0.49395051
0.48785658
0.48175762
0.47566072
0.46957231
0.46349653
0.45743589
0.45139043
0.44535733
0.43933096
0.43330391
0.4272693
0.42122126
0.41515578
0.40906973
0.40296106
0.39682893
0.39067415
0.38449997
0.37831113
0.37211238
0.36590969
0.35969388
0.3534946
0.34731238
0.34111261
0.33491321
0.32873196
0.32255487
0.31636929
0.31018104
0.30399772
0.29781558
0.29162543
0.28542235
0.27920778
0.27298502
0.26675529
0.26051827
0.25427351
0.24802303
0.24177003
0.23551924
0.22927407
0.22303794
0.21681278
0.21060133
0.20440559
0.19823029
0.1920847
0.18596524
0.17996233
0.17304013
0.16612929
0.16038395
0.15463153
0.14847862
0.14222837
0.13607407
0.12998032
0.12388254
0.11776895
0.11165586
0.10555221
0.099457258
0.093365514
0.087274463
0.081182879
0.075093047
0.069007048
0.062929612
0.05686402
0.050815178
0.044785366
0.038777801
0.032793352
0.026834509
0.020902407
0.014999233
0.0091210289
0.003309031
0.70826116
0.70725129
0.70481822
0.70130521
0.69711427
0.69248022
0.687521
0.6823157
0.67693178
0.67142213
0.66582261
0.66015648
0.6544397
0.64868364
0.64289635
0.63708338
0.63124867
0.62539513
0.61952487
0.61363955
0.60774018
0.6018277
0.59590256
0.58996535
0.58401621
0.57805565
0.57208417
0.56610345
0.5601158
0.55412455
0.54813205
0.54213972
0.53614656
0.53014951
0.52414504
0.51812993
0.51210036
0.50605404
0.4999904
0.49391139
0.48782084
0.48172508
0.4756307
0.46954376
0.46346816
0.45740631
0.45135828
0.44532145
0.43929051
0.43325839
0.42721839
0.42116484
0.41509387
0.40900258
0.40288911
0.39675291
0.39059496
0.38441875
0.37822924
0.37203148
0.36583173
0.35961768
0.35341982
0.34724055
0.34104451
0.33484834
0.32866953
0.32249489
0.31631254
0.31012794
0.30394794
0.29776872
0.29158165
0.28538199
0.2791707
0.27295042
0.26672212
0.26048569
0.25424099
0.24799039
0.24173727
0.23548659
0.22924194
0.2230069
0.21678333
0.21057369
0.20437935
0.19820422
0.19205643
0.18593072
0.17991365
0.17298845
0.16607233
0.16030974
0.15455401
0.14841343
0.14217681
0.136031
0.12994371
0.12385333
0.11774768
0.11164187
0.10554454
0.099455172
0.09336835
0.087281465
0.081193193
0.075105876
0.069021717
0.062945656
0.056881183
0.050833453
0.044804892
0.038798758
0.032815666
0.026857592
0.020924868
0.015018926
0.0091354114
0.0033188702
0.70610982
0.70519605
0.70298161
0.69974563
0.6958246
0.69142588
0.68666641
0.68162944
0.67638474
0.67098762
0.66547785
0.6598829
0.65422237
0.64851059
0.64275804
0.63697229
0.63115887
0.62532193
0.61946454
0.61358911
0.60769727
0.60179045
0.59586957
0.58993565
0.58398929
0.57803147
0.57206303
0.5660858
0.56010193
0.55411431
0.54812493
0.54213503
0.53614347
0.53014771
0.5241446
0.51813125
0.51210414
0.50606109
0.50000148
0.49392698
0.48784104
0.48174954
0.47565864
0.46957411
0.4634997
0.45743774
0.45138839
0.44534918
0.4393151
0.43327934
0.42723546
0.42117792
0.41510303
0.40900806
0.40289137
0.39675259
0.39059285
0.38441579
0.37822652
0.37203013
0.36583264
0.35962099
0.35342456
0.34724795
0.34105528
0.33486211
0.32868572
0.32251365
0.31633452
0.3101535
0.30397683
0.29780057
0.29161646
0.2854199
0.27921149
0.27299332
0.26676616
0.26053003
0.25428512
0.24803406
0.24178047
0.23552949
0.22928487
0.22305032
0.21682762
0.21061892
0.20442504
0.19824914
0.19209833
0.18596574
0.17993434
0.17300693
0.16608854
0.16031027
0.15454838
0.14841503
0.14218845
0.13604937
0.12996686
0.1238817
0.11778176
0.11168127
0.10558844
0.099502785
0.093418937
0.087334231
0.081247292
0.075160517
0.069076235
0.062999581
0.056934254
0.050885635
0.044856309
0.038849571
0.032865843
0.026906652
0.020971669
0.015061728
0.0091720012
0.0033478624
0.70422927
0.70339177
0.70135286
0.69834466
0.69465286
0.69045989
0.68587817
0.68099255
0.67587421
0.67058032
0.66515355
0.65962481
0.65401682
0.6483465
0.64262651
0.63686621
0.63107256
0.62525086
0.61940503
0.61353819
0.60765256
0.60175006
0.59583205
0.58990003
0.58395505
0.57799853
0.57203165
0.56605638
0.56007473
0.55408933
0.54810171
0.54211235
0.53612067
0.53012457
0.52412107
0.5181076
0.51208091
0.50603896
0.4999811
0.49390881
0.48782522
0.48173582
0.47564641
0.4695625
0.46348767
0.45742422
0.45137234
0.44532973
0.43929161
0.43325144
0.42720297
0.42114085
0.41506149
0.40896232
0.40284185
0.39669987
0.39053765
0.38435895
0.37816901
0.37197309
0.36577744
0.35956611
0.35337023
0.34719565
0.34100576
0.33481514
0.32864088
0.32247111
0.31629486
0.31011702
0.30394333
0.29776973
0.2915882
0.28539425
0.27918821
0.27297177
0.26674551
0.26050954
0.25426435
0.24801286
0.2417589
0.23550776
0.22926333
0.22302937
0.2168076
0.2105999
0.20440658
0.19823022
0.19207714
0.18593968
0.17989883
0.17297258
0.16605376
0.16026309
0.15449601
0.14836905
0.14215219
0.13602055
0.12994367
0.12386421
0.1177704
0.11167583
0.10558823
0.099507067
0.093426985
0.087345309
0.081260655
0.075175492
0.069092275
0.063016314
0.056951482
0.050903334
0.044874559
0.038868447
0.032885228
0.026926037
0.020990016
0.015077548
0.0091836765
0.0033563924
0.70259706
0.70182043
0.6999228
0.6971015
0.69360283
0.68958759
0.68516199
0.68041065
0.67540544
0.67020478
0.66485358
0.65938549
0.65382586
0.64819388
0.64250413
0.63676757
0.63099245
0.6251851
0.61935026
0.61349172
0.60761224
0.60171424
0.59579953
0.58987006
0.58392728
0.577973
0.57200869
0.56603637
0.56005795
0.55407565
0.54809065
0.54210306
0.53611262
0.53011735
0.52411457
0.51810196
0.51207656
0.5060365
0.49998113
0.49391182
0.48783143
0.48174512
0.47565837
0.46957643
0.46350274
0.45743954
0.45138699
0.44534293
0.43930274
0.43326009
0.42720891
0.42114397
0.41506176
0.40895985
0.40283687
0.39669278
0.39052896
0.38434936
0.37815934
0.3719642
0.36577003
0.35956051
0.35336567
0.34719325
0.34100623
0.3348183
0.32864642
0.32247918
0.31630592
0.31013127
0.30396054
0.29778958
0.29161054
0.28541902
0.27921516
0.27300034
0.26677498
0.26053928
0.25429397
0.24804221
0.24178799
0.23553676
0.22929244
0.22305883
0.21683752
0.21063016
0.20443664
0.19825907
0.19210314
0.18596044
0.1799099
0.17298408
0.16606599
0.16026424
0.15449113
0.14836785
0.14215808
0.13603211
0.12995936
0.12388387
0.1177943
0.11170379
0.10561967
0.099541299
0.093463324
0.087383105
0.081299291
0.075214434
0.069131105
0.063054758
0.056989395
0.050940689
0.044911387
0.038904754
0.032920859
0.026960529
0.021022505
0.015106854
0.0092084329
0.0033761033
0.7011954
0.70046734
0.69868329
0.69601457
0.692677
0.68881321
0.68452268
0.67988864
0.67498303
0.66986509
0.66458141
0.6591678
0.65365178
0.6480545
0.64239216
0.63667714
0.63091882
0.62512444
0.61929947
0.61344831
0.60757422
0.60168011
0.5957682
0.58984086
0.58389991
0.57794748
0.57198522
0.56601523
0.56003923
0.55405921
0.54807602
0.54208918
0.53609885
0.5301034
0.5241003
0.51808751
0.51206235
0.50602311
0.49996919
0.49390182
0.48782366
0.48173951
0.47565457
0.4695738
0.46350051
0.4574368
0.45138288
0.44533661
0.43929355
0.43324756
0.42719273
0.42112396
0.41503786
0.40893213
0.40280555
0.39665825
0.39049179
0.38431027
0.37811917
0.37192395
0.36573096
0.35952183
0.35332724
0.34715629
0.34097138
0.33478548
0.32861537
0.32245006
0.31627913
0.31010699
0.30393863
0.29776979
0.29159276
0.2854032
0.27920111
0.27298762
0.26676301
0.26052755
0.25428217
0.24803023
0.24177588
0.23552465
0.22928051
0.22304724
0.21682638
0.21061937
0.20442581
0.19824742
0.19208947
0.1859432
0.17988654
0.17296333
0.16604672
0.16023645
0.15445872
0.14833895
0.14213587
0.13601558
0.12994716
0.12387571
0.11779033
0.11170392
0.10562345
0.099548131
0.093472631
0.087394353
0.08131199
0.075228176
0.069145571
0.063069733
0.057004752
0.05095637
0.044927366
0.03892097
0.032937125
0.026976419
0.021037305
0.015119624
0.009218203
0.0033837001
0.7000099
0.69932045
0.69762714
0.6950818
0.69187681
0.68813989
0.68396403
0.67943045
0.67461075
0.66956466
0.66433999
0.65897422
0.65349665
0.64793004
0.64229202
0.63659615
0.63085279
0.62506999
0.61925386
0.61340933
0.60754016
0.60164966
0.59574046
0.58981527
0.58387623
0.57792574
0.57196561
0.56599794
0.56002434
0.55404652
0.54806507
0.54207943
0.53608978
0.53009468
0.52409187
0.51807955
0.51205527
0.50601746
0.49996554
0.49390065
0.48782522
0.48174378
0.47566124
0.46958232
0.46351016
0.45744678
0.45139237
0.44534487
0.43929995
0.43325164
0.42719418
0.42112262
0.41503367
0.40892518
0.40279605
0.39664657
0.39047845
0.38429594
0.37810461
0.37190995
0.36571819
0.35951074
0.35331698
0.34714773
0.34096507
0.33478135
0.32861323
0.32245005
0.31628161
0.3101121
0.30394623
0.29777966
0.29160478
0.28541729
0.27921707
0.27300503
0.26678136
0.26054636
0.25430111
0.24804915
0.24179476
0.23554352
0.22929943
0.22306628
0.21684551
0.21063841
0.20444437
0.1982648
0.19210461
0.18595474
0.17989185
0.17297008
0.16605518
0.16023733
0.15445477
0.14833686
0.14213846
0.13602228
0.12995691
0.12388822
0.11780573
0.11172215
0.10564415
0.099570833
0.093496841
0.087419627
0.081337932
0.075254457
0.069171936
0.063096
0.057030804
0.050982132
0.044952783
0.038945958
0.032961506
0.026999843
0.021059205
0.015139275
0.0092347795
0.0033970012
0.69902929
0.69837011
0.69674827
0.69430109
0.69120306
0.68757
0.6834891
0.67903938
0.67429185
0.66930646
0.66413188
0.65880692
0.65336226
0.64782197
0.64220486
0.63652547
0.630795
0.62502216
0.61921362
0.61337478
0.60750979
0.60162236
0.59571546
0.5897921
0.58385472
0.5779059
0.57194757
0.56598186
0.56001025
0.55403428
0.54805435
0.54206946
0.5360801
0.53008514
0.52408241
0.51807031
0.51204659
0.5060098
0.49995936
0.49389634
0.48782296
0.4817435
0.47566263
0.46958485
0.46351314
0.45744947
0.451394
0.4453447
0.4392974
0.43324626
0.42718567
0.42111084
0.41501858
0.40890687
0.40277472
0.39662261
0.39045236
0.38426836
0.37807625
0.37188162
0.36569086
0.3594837
0.35329017
0.34712204
0.340941
0.33475888
0.32859223
0.32243068
0.31626418
0.31009676
0.30393291
0.29776819
0.29159506
0.28540924
0.27921051
0.27299963
0.26677666
0.26054195
0.25429671
0.24804463
0.24179011
0.23553877
0.22929466
0.22306153
0.2168408
0.21063364
0.20443924
0.19825883
0.19209704
0.18594472
0.17987801
0.17295896
0.16604583
0.16022227
0.15443614
0.14832013
0.14212605
0.13601379
0.12995148
0.12388555
0.11780587
0.11172505
0.10564951
0.099578234
0.093505846
0.087429851
0.081349039
0.07526618
0.069184066
0.063108394
0.057043358
0.050994776
0.044965455
0.038958567
0.032973895
0.027011725
0.021070145
0.015148719
0.0092421622
0.0034029493
0.69824457
0.69760857
0.69604163
0.6936704
0.69065606
0.68710522
0.68310022
0.678718
0.67402887
0.66909284
0.66395921
0.65866771
0.65325012
0.64773155
0.64213172
0.63646599
0.63074621
0.62498164
0.61917941
0.61334531
0.60748383
0.60159899
0.59569406
0.58977232
0.58383642
0.57788911
0.57193241
0.56596844
0.55999859
0.55402421
0.54804554
0.54206153
0.5360727
0.53007804
0.52407559
0.51806389
0.51204087
0.50600515
0.49995619
0.49389496
0.48782355
0.48174604
0.47566688
0.46959039
0.46351945
0.45745593
0.45139997
0.44534959
0.4393007
0.43324759
0.42718478
0.42110759
0.41501295
0.40889893
0.40276468
0.39661077
0.39043916
0.38425434
0.37806203
0.37186782
0.36567796
0.3594718
0.35327881
0.34711191
0.34093251
0.33475202
0.32858693
0.32242707
0.31626252
0.31009717
0.30393531
0.29777244
0.29160105
0.28541686
0.27921958
0.27300982
0.26678757
0.26055321
0.25430804
0.2480559
0.24180124
0.23554979
0.22930557
0.22307234
0.21685147
0.21064405
0.20444915
0.19826783
0.19210455
0.18595002
0.17987965
0.17296211
0.16605064
0.16022233
0.15443298
0.14831807
0.14212707
0.13601767
0.12995756
0.12389358
0.11781585
0.11173692
0.10566302
0.09959302
0.093521538
0.087446125
0.081365625
0.075282871
0.069200708
0.063124884
0.057059626
0.051010772
0.044981127
0.038973849
0.032988666
0.027025778
0.021083165
0.015160317
0.0092519041
0.0034108605
0.697649
0.69702993
0.69550323
0.693188
0.6902359
0.68674678
0.68279922
0.67846837
0.67382388
0.66892575
0.66382367
0.65855805
0.65316145
0.64765975
0.64207338
0.63641829
0.63070685
0.62494874
0.61915144
0.61332103
0.60746229
0.60157947
0.59567608
0.58975562
0.58382089
0.5778748
0.57191942
0.56595686
0.55998842
0.55401537
0.54803782
0.5420544
0.53606588
0.53007147
0.52406925
0.51805789
0.51203543
0.50600057
0.49995279
0.49389299
0.48782318
0.48174725
0.47566948
0.46959403
0.46352368
0.45746019
0.4514037
0.44535222
0.43930172
0.43324659
0.42718148
0.42110182
0.41500464
0.40888814
0.40275155
0.39659558
0.39042228
0.38423629
0.37804336
0.37184915
0.36566001
0.35945396
0.35326117
0.34709511
0.34091689
0.33473761
0.32857367
0.3224151
0.31625205
0.31008832
0.30392804
0.29776664
0.29159665
0.28541377
0.27921764
0.27300874
0.26678704
0.26055291
0.25430775
0.24805549
0.24180069
0.23554909
0.22930476
0.22307143
0.21685044
0.21064281
0.20444755
0.1982656
0.19210128
0.1859453
0.17987285
0.17295734
0.16604728
0.16021568
0.15442416
0.14831036
0.14212198
0.13601506
0.1299569
0.12389461
0.11781853
0.11174113
0.10566853
0.099599518
0.093528705
0.087453705
0.081373416
0.07529074
0.069208569
0.063132697
0.057067372
0.051018441
0.044988706
0.038981297
0.03299591
0.027032671
0.021089503
0.01516583
0.0092563303
0.0034146574
0.69723748
0.69662975
0.69513001
0.69285246
0.6899425
0.68649547
0.68258732
0.67829191
0.67367836
0.6688066
0.66372655
0.65847906
0.6530972