/*--------------------------------*- C++ -*----------------------------------*\
  =========                 |
  \\      /  F ield         | OpenFOAM: The Open Source CFD Toolbox
   \\    /   O peration     | Website:  https://openfoam.org
    \\  /    A nd           | Version:  13
     \\/     M anipulation  |
\*---------------------------------------------------------------------------*/
FoamFile
{
    format      ascii;
    class       surfaceScalarField;
    location    "50";
    object      phi;
}
// * * * * * * * * * * * * * * * * * * * * * * * * * * * * * * * * * * * * * //

dimensions      [0 3 -1 0 0 0 0];

internalField   nonuniform List<scalar> 
11352
(
0.00042933756
5.4273848e-07
0.00042882221
5.1535101e-07
0.00042831253
5.0968031e-07
0.00042778872
5.2380569e-07
0.00042725407
5.3465264e-07
0.00042671388
5.4018278e-07
0.00042617062
5.4325961e-07
0.0004256253
5.4531339e-07
0.00042507859
5.4671496e-07
0.00042453097
5.4761803e-07
0.00042398281
5.4816067e-07
0.00042343436
5.4844979e-07
0.0004228858
5.4855699e-07
0.00042233727
5.4852938e-07
0.00042178888
5.48401e-07
0.00042124068
5.4819627e-07
0.00042069275
5.4793435e-07
0.00042014512
5.4762851e-07
0.00041959783
5.4728949e-07
0.00041905091
5.4692401e-07
0.00041850438
5.4653826e-07
0.00041795824
5.4613611e-07
0.00041741252
5.4572199e-07
0.00041686722
5.4529856e-07
0.00041632236
5.4486877e-07
0.00041577793
5.4443372e-07
0.00041523394
5.4399455e-07
0.00041469039
5.4355013e-07
0.00041414729
5.4310166e-07
0.00041360464
5.4264357e-07
0.00041306245
5.421787e-07
0.00041252068
5.4178226e-07
0.00041197935
5.4134094e-07
0.00041143849
5.4089529e-07
0.00041089807
5.4043923e-07
0.00041035811
5.3998151e-07
0.00040981861
5.395197e-07
0.00040927956
5.3905676e-07
0.00040874098
5.3859858e-07
0.00040820286
5.3813154e-07
0.00040766519
5.3767729e-07
0.00040712798
5.372142e-07
0.00040659122
5.3676466e-07
0.00040605491
5.3630065e-07
0.00040551907
5.3584784e-07
0.00040498366
5.3538537e-07
0.00040444872
5.3493134e-07
0.00040391423
5.3447113e-07
0.00040338019
5.340118e-07
0.00040284662
5.335512e-07
0.0004023135
5.3308653e-07
0.00040178086
5.3262586e-07
0.00040124868
5.3215634e-07
0.00040071697
5.3169146e-07
0.00040018574
5.3121353e-07
0.000399655
5.3073741e-07
0.00039912474
5.3024692e-07
0.00039859499
5.2975275e-07
0.00039806574
5.2924441e-07
0.00039753702
5.2872156e-07
0.00039700883
5.2817818e-07
0.0003964813
5.2753241e-07
0.00039595455
5.2675561e-07
0.00039542827
5.2628023e-07
0.00039490265
5.2562304e-07
0.0003943778
5.2484378e-07
0.00039385364
5.2416499e-07
0.00039333028
5.2336946e-07
0.00039280784
5.224327e-07
0.00039228639
5.2144781e-07
0.00039176598
5.204046e-07
0.00039124672
5.1924961e-07
0.00039072874
5.1796096e-07
0.00039021218
5.1654025e-07
0.00038969718
5.1498064e-07
0.0003891839
5.1326549e-07
0.00038867252
5.1137314e-07
0.00038816323
5.0928372e-07
0.00038765625
5.0697874e-07
0.00038715182
5.0443964e-07
0.00038665018
5.0164733e-07
0.00038615161
4.9857997e-07
0.00038565641
4.9521357e-07
0.0003851649
4.9151844e-07
0.00038467745
4.8745622e-07
0.00038419449
4.8296801e-07
0.00038371653
4.7795231e-07
0.00038324437
4.721973e-07
0.00038277932
4.6508643e-07
0.00038232366
4.5575409e-07
0.00038188847
4.3518057e-07
0.00038147167
4.1674309e-07
0.00038104612
4.2549161e-07
0.0003806205
4.2555172e-07
0.00038020327
4.1719474e-07
0.00037979398
4.0929414e-07
0.00037939231
4.016976e-07
0.0003789991
3.9322953e-07
0.00037861503
3.8407482e-07
0.00037824043
3.7459741e-07
0.00037787552
3.6489982e-07
0.00037752054
3.5497544e-07
0.00037717569
3.448359e-07
0.00037684116
3.3451225e-07
0.0003765171
3.2404384e-07
0.00037620362
3.1346498e-07
0.0003759008
3.0281104e-07
0.00037560868
2.9211294e-07
0.00037532728
2.8140531e-07
0.00037505656
2.707179e-07
0.00037479649
2.6008351e-07
0.00037454696
2.4952798e-07
0.00037430789
2.3907733e-07
0.00037407916
2.28746e-07
0.00037386063
2.1853702e-07
0.00037365223
2.0840963e-07
0.00037345402
1.9820345e-07
0.00037326674
1.8728545e-07
0.00037309352
1.7323197e-07
1.2743197e-07
0.00043006805
3.549905e-07
0.00043013738
4.4601813e-07
0.00043018859
4.5846794e-07
0.00043023255
4.7984871e-07
0.00043026837
4.9883112e-07
0.00043029814
5.1040674e-07
0.00043032371
5.1769139e-07
0.00043034601
5.2300811e-07
0.00043036561
5.2710759e-07
0.00043038295
5.3028685e-07
0.00043039832
5.3278878e-07
0.00043041196
5.3480691e-07
0.00043042404
5.3647399e-07
0.00043043469
5.3787962e-07
0.00043044401
5.3908753e-07
0.00043045206
5.4014498e-07
0.00043045891
5.4108747e-07
0.00043046459
5.4194139e-07
0.00043046916
5.4272623e-07
0.00043047262
5.4345639e-07
0.00043047502
5.4414304e-07
0.00043047636
5.4479523e-07
0.00043047666
5.454204e-07
0.00043047594
5.4602398e-07
0.0004304742
5.4660954e-07
0.00043047145
5.4717889e-07
0.00043046772
5.4773235e-07
0.00043046299
5.4827046e-07
0.00043045729
5.4879407e-07
0.0004304506
5.4930874e-07
0.00043044295
5.4982014e-07
0.00043043432
5.5041281e-07
0.00043042473
5.5094392e-07
0.00043041419
5.514676e-07
0.00043040269
5.5198069e-07
0.00043039023
5.5248359e-07
0.00043037683
5.5297472e-07
0.00043036249
5.5345876e-07
0.00043034721
5.5393179e-07
0.000430331
5.5439228e-07
0.00043031387
5.5484596e-07
0.00043029582
5.5529322e-07
0.00043027686
5.5573447e-07
0.00043025698
5.561652e-07
0.00043023621
5.5659284e-07
0.00043021453
5.5701783e-07
0.00043019197
5.5744443e-07
0.0004301685
5.5786754e-07
0.00043014415
5.5828791e-07
0.00043011893
5.5870368e-07
0.00043009283
5.5911638e-07
0.00043006586
5.5952555e-07
0.00043003803
5.5992864e-07
0.00043000935
5.6032397e-07
0.00042997982
5.607062e-07
0.00042994947
5.6107427e-07
0.00042991828
5.614223e-07
0.00042988629
5.617486e-07
0.0004298535
5.6204518e-07
0.00042981992
5.6230486e-07
0.0004297856
5.6252694e-07
0.00042975084
5.6230864e-07
0.00042971538
5.6223315e-07
0.00042967916
5.6250843e-07
0.00042964231
5.6248123e-07
0.00042960495
5.6221907e-07
0.00042956705
5.6207156e-07
0.00042952868
5.6175307e-07
0.00042948994
5.6118688e-07
0.0004294509
5.6050281e-07
0.00042941162
5.5970021e-07
0.00042937219
5.5869413e-07
0.00042933272
5.5744209e-07
0.00042929333
5.5594243e-07
0.00042925414
5.5418773e-07
0.00042921526
5.5215304e-07
0.00042917683
5.4980581e-07
0.00042913899
5.4711618e-07
0.00042910191
5.4405794e-07
0.00042906572
5.4060693e-07
0.00042903061
5.3673751e-07
0.00042899674
5.3242068e-07
0.00042896431
5.2762155e-07
0.0004289335
5.2229574e-07
0.00042890453
5.1638151e-07
0.00042887768
5.0978094e-07
0.00042885328
5.0231205e-07
0.00042883187
4.9359025e-07
0.00042881432
4.8264528e-07
0.00042880255
4.6749216e-07
0.00042880277
4.3493408e-07
0.0004288108
4.0868748e-07
0.00042881147
4.2485328e-07
0.00042881042
4.2663138e-07
0.00042881185
4.1579427e-07
0.00042881622
4.0495856e-07
0.000428823
3.9494684e-07
0.00042883225
3.8399268e-07
0.00042884419
3.7215013e-07
0.00042885883
3.5997086e-07
0.00042887609
3.4766118e-07
0.00042889584
3.3523381e-07
0.00042891799
3.2270609e-07
0.00042894239
3.1012731e-07
0.00042896889
2.9755407e-07
0.00042899733
2.85038e-07
0.00042902752
2.7262498e-07
0.00042905929
2.6035738e-07
0.00042909241
2.4827465e-07
0.00042912672
2.3641232e-07
0.00042916199
2.2480094e-07
0.00042919804
2.1346399e-07
0.00042923468
2.0241602e-07
0.00042927175
1.9165714e-07
0.00042930912
1.811596e-07
0.00042934668
1.7083249e-07
0.00042938443
1.6042868e-07
0.00042942243
1.4927665e-07
0.00042946
1.356884e-07
1.1839296e-07
0.00042998254
2.5275209e-07
0.00043005526
3.7329635e-07
0.00043010591
4.0781614e-07
0.00043015166
4.3409874e-07
0.00043019304
4.5744579e-07
0.00043023012
4.7332188e-07
0.00043026411
4.837079e-07
0.00043029593
4.9118476e-07
0.00043032615
4.9688259e-07
0.00043035517
5.012706e-07
0.00043038327
5.0468497e-07
0.00043041068
5.0739385e-07
0.00043043757
5.0958858e-07
0.00043046405
5.1140036e-07
0.00043049022
5.1292346e-07
0.00043051614
5.1422713e-07
0.00043054186
5.153641e-07
0.00043056743
5.1637294e-07
0.00043059288
5.172831e-07
0.00043061822
5.1811557e-07
0.00043064348
5.188875e-07
0.00043066867
5.196117e-07
0.00043069379
5.2029962e-07
0.00043071886
5.2095911e-07
0.00043074387
5.2159644e-07
0.00043076885
5.2221438e-07
0.00043079377
5.228145e-07
0.00043081865
5.2339666e-07
0.00043084349
5.2396268e-07
0.00043086828
5.2451178e-07
0.00043089304
5.2505024e-07
0.00043091776
5.2571049e-07
0.00043094241
5.2630618e-07
0.00043096701
5.2688367e-07
0.00043099156
5.2744382e-07
0.00043101606
5.279911e-07
0.00043104052
5.2852601e-07
0.00043106492
5.2905328e-07
0.00043108928
5.29574e-07
0.00043111359
5.3008422e-07
0.00043113784
5.3059384e-07
0.00043116203
5.3109818e-07
0.00043118616
5.3160299e-07
0.00043121022
5.3209729e-07
0.00043123422
5.3259241e-07
0.00043125815
5.3308408e-07
0.00043128202
5.335799e-07
0.00043130581
5.3407248e-07
0.00043132953
5.3456331e-07
0.00043135317
5.350508e-07
0.00043137675
5.3553526e-07
0.00043140025
5.3601861e-07
0.00043142367
5.3649526e-07
0.00043144703
5.3696657e-07
0.00043147031
5.3742345e-07
0.00043149351
5.3786786e-07
0.00043151664
5.3829128e-07
0.00043153969
5.3869538e-07
0.00043156266
5.3907138e-07
0.00043158555
5.3941699e-07
0.00043160833
5.3974558e-07
0.00043163115
5.394894e-07
0.00043165374
5.3964245e-07
0.00043167632
5.3992033e-07
0.00043169877
5.4002575e-07
0.00043172111
5.398796e-07
0.00043174338
5.3980447e-07
0.00043176553
5.3960082e-07
0.00043178756
5.3914538e-07
0.0004318095
5.3855053e-07
0.00043183134
5.3784385e-07
0.00043185307
5.3694869e-07
0.00043187468
5.3581302e-07
0.00043189616
5.3443254e-07
0.00043191753
5.3280302e-07
0.00043193876
5.3090181e-07
0.00043195987
5.2869565e-07
0.00043198083
5.2615237e-07
0.00043200164
5.2324463e-07
0.00043202231
5.1994612e-07
0.00043204283
5.1622989e-07
0.00043206321
5.1206336e-07
0.00043208344
5.0740763e-07
0.00043210355
5.0221103e-07
0.00043212354
4.9640194e-07
0.00043214347
4.8986912e-07
0.00043216337
4.8241988e-07
0.00043218333
4.73682e-07
0.0004322032
4.628473e-07
0.00043222225
4.4851349e-07
0.00043223176
4.2536594e-07
0.00043224122
3.9915068e-07
0.00043225962
4.0643115e-07
0.00043227789
4.0832569e-07
0.00043229451
3.9912055e-07
0.00043231073
3.8871042e-07
0.00043232648
3.7920842e-07
0.00043234147
3.6900214e-07
0.00043235579
3.5783732e-07
0.00043236951
3.4623712e-07
0.00043238268
3.3448494e-07
0.00043239528
3.2262033e-07
0.00043240731
3.1065807e-07
0.00043241878
2.9864256e-07
0.00043242968
2.8663153e-07
0.00043244003
2.7467518e-07
0.00043244982
2.6281902e-07
0.00043245907
2.5110086e-07
0.00043246779
2.3955817e-07
0.00043247599
2.2822089e-07
0.00043248368
2.171172e-07
0.00043249089
2.0626449e-07
0.00043249765
1.9567372e-07
0.00043250398
1.8533737e-07
0.00043250993
1.7522219e-07
0.00043251553
1.6523511e-07
0.00043252079
1.5516922e-07
0.00043252546
1.4461215e-07
0.0004325282
1.3297035e-07
1.21122e-07
0.00042994339
1.8966161e-07
0.00043000723
3.0945547e-07
0.00043005474
3.6030492e-07
0.00043009662
3.922135e-07
0.00043013544
4.1862814e-07
0.00043017093
4.378271e-07
0.00043020373
4.50905e-07
0.00043023464
4.6027646e-07
0.00043026417
4.6734868e-07
0.00043029267
4.7277072e-07
0.00043032039
4.7696247e-07
0.00043034753
4.8025215e-07
0.00043037424
4.828803e-07
0.00043040063
4.850158e-07
0.00043042677
4.8677959e-07
0.00043045274
4.8826131e-07
0.00043047857
4.8952817e-07
0.00043050432
4.9063062e-07
0.00043052999
4.9160626e-07
0.00043055562
4.9248328e-07
0.00043058123
4.9328318e-07
0.00043060682
4.9402309e-07
0.0004306324
4.9471663e-07
0.00043065798
4.9537426e-07
0.00043068358
4.9600324e-07
0.00043070918
4.9660799e-07
0.00043073481
4.9719051e-07
0.00043076045
4.9775247e-07
0.00043078611
4.9829645e-07
0.00043081178
4.9883039e-07
0.00043083747
4.9935602e-07
0.00043086322
4.999772e-07
0.00043088897
5.005701e-07
0.00043091474
5.011448e-07
0.00043094052
5.0170069e-07
0.00043096632
5.0224019e-07
0.00043099213
5.0276357e-07
0.00043101795
5.0327365e-07
0.0004310438
5.0377048e-07
0.00043106967
5.0425418e-07
0.00043109556
5.0472858e-07
0.00043112148
5.0519637e-07
0.00043114742
5.0565925e-07
0.00043117339
5.0611523e-07
0.00043119938
5.0656953e-07
0.0004312254
5.0702501e-07
0.00043125145
5.0748568e-07
0.00043127752
5.0794863e-07
0.00043130361
5.0841317e-07
0.00043132973
5.0887771e-07
0.00043135586
5.09343e-07
0.00043138202
5.0980851e-07
0.0004314082
5.1027164e-07
0.0004314344
5.1072924e-07
0.00043146061
5.1117593e-07
0.00043148685
5.1160868e-07
0.0004315131
5.1202268e-07
0.00043153938
5.124154e-07
0.00043156566
5.1278267e-07
0.00043159196
5.1312794e-07
0.00043161825
5.1345762e-07
0.0004316446
5.1314395e-07
0.0004316709
5.1335369e-07
0.00043169725
5.1357064e-07
0.00043172358
5.1369849e-07
0.00043174986
5.1360586e-07
0.00043177617
5.1350908e-07
0.00043180246
5.1332905e-07
0.00043182869
5.1293236e-07
0.00043185487
5.1238154e-07
0.00043188101
5.1172277e-07
0.00043190708
5.1090006e-07
0.00043193305
5.0985562e-07
0.00043195892
5.0857578e-07
0.00043198467
5.0705761e-07
0.0004320103
5.0528352e-07
0.00043203577
5.0322346e-07
0.00043206107
5.0084664e-07
0.00043208617
4.9812558e-07
0.00043211106
4.9503494e-07
0.00043213572
4.9154745e-07
0.00043216012
4.876307e-07
0.00043218425
4.8324358e-07
0.0004322081
4.7833188e-07
0.00043223164
4.7282058e-07
0.00043225488
4.6659919e-07
0.00043227778
4.5948858e-07
0.00043230028
4.5117615e-07
0.00043232203
4.4110527e-07
0.00043234195
4.2856265e-07
0.00043235501
4.1226558e-07
0.00043236579
3.8833591e-07
0.00043238294
3.8929006e-07
0.00043240179
3.8948662e-07
0.0004324189
3.8200297e-07
0.00043243516
3.724646e-07
0.00043245089
3.6349e-07
0.00043246581
3.5409142e-07
0.00043247985
3.438094e-07
0.00043249307
3.3301921e-07
0.00043250554
3.2203094e-07
0.00043251725
3.1092072e-07
0.00043252822
2.9970335e-07
0.00043253845
2.8841625e-07
0.00043254798
2.7711046e-07
0.00043255683
2.6583522e-07
0.00043256502
2.5463273e-07
0.00043257258
2.4354129e-07
0.00043257953
2.3259523e-07
0.00043258592
2.218254e-07
0.00043259176
2.112569e-07
0.0004325971
2.0090768e-07
0.00043260198
1.9078533e-07
0.00043260641
1.8088267e-07
0.00043261045
1.711669e-07
0.00043261411
1.6156317e-07
0.00043261733
1.5193313e-07
0.00043261986
1.4207461e-07
0.00043262091
1.3194008e-07
1.2260004e-07
0.00042992103
1.4893554e-07
0.00042997169
2.5878944e-07
0.00043001408
3.1791327e-07
0.00043005191
3.543854e-07
0.0004300878
3.8273173e-07
0.00043012158
4.0404212e-07
0.00043015336
4.1912725e-07
0.00043018361
4.3002172e-07
0.00043021274
4.3822254e-07
0.000430241
4.4451161e-07
0.00043026859
4.4937277e-07
0.00043029567
4.5317345e-07
0.00043032236
4.5618963e-07
0.00043034876
4.5861896e-07
0.00043037493
4.6060485e-07
0.00043040094
4.6225293e-07
0.00043042683
4.6364344e-07
0.00043045263
4.6483587e-07
0.00043047836
4.6587607e-07
0.00043050405
4.6679743e-07
0.00043052971
4.6762686e-07
0.00043055535
4.6838416e-07
0.00043058098
4.6908641e-07
0.00043060662
4.6974531e-07
0.00043063226
4.7037042e-07
0.00043065791
4.7096658e-07
0.00043068357
4.7153727e-07
0.00043070924
4.7208421e-07
0.00043073493
4.726113e-07
0.00043076064
4.7312073e-07
0.00043078638
4.7361938e-07
0.00043081218
4.7418849e-07
0.00043083797
4.7478459e-07
0.00043086378
4.7534824e-07
0.0004308896
4.7588604e-07
0.00043091544
4.7640276e-07
0.0004309413
4.7690069e-07
0.00043096719
4.7738282e-07
0.0004309931
4.7785271e-07
0.00043101903
4.7831078e-07
0.00043104499
4.7876086e-07
0.00043107097
4.7920432e-07
0.00043109698
4.7964471e-07
0.00043112301
4.8007969e-07
0.00043114907
4.8051337e-07
0.00043117514
4.8094747e-07
0.00043120125
4.8138577e-07
0.00043122737
4.8182645e-07
0.00043125352
4.8226838e-07
0.00043127969
4.8271041e-07
0.00043130589
4.8315221e-07
0.00043133211
4.835938e-07
0.00043135835
4.840322e-07
0.00043138462
4.8446475e-07
0.00043141091
4.8488599e-07
0.00043143723
4.8529289e-07
0.00043146358
4.8568091e-07
0.00043148994
4.8604845e-07
0.00043151633
4.8639282e-07
0.00043154274
4.8671393e-07
0.00043156918
4.8702306e-07
0.00043159562
4.8670246e-07
0.00043162205
4.8692725e-07
0.0004316485
4.8711644e-07
0.00043167495
4.8723976e-07
0.00043170137
4.8718004e-07
0.00043172781
4.8706116e-07
0.00043175426
4.8688064e-07
0.00043178065
4.865247e-07
0.00043180701
4.8600991e-07
0.00043183334
4.8538162e-07
0.00043185961
4.8460826e-07
0.00043188581
4.836363e-07
0.00043191192
4.8244582e-07
0.00043193793
4.8103256e-07
0.00043196381
4.7938216e-07
0.00043198956
4.7746755e-07
0.00043201515
4.752577e-07
0.00043204055
4.7272508e-07
0.00043206575
4.6984265e-07
0.00043209073
4.665831e-07
0.00043211547
4.629128e-07
0.00043213994
4.5879093e-07
0.00043216413
4.5416333e-07
0.00043218801
4.4895831e-07
0.00043221155
4.4307579e-07
0.0004322347
4.3636901e-07
0.00043225731
4.2861023e-07
0.00043227903
4.1945427e-07
0.00043229904
4.0858954e-07
0.00043231506
3.9617663e-07
0.00043232872
3.746171e-07
0.00043234589
3.7212516e-07
0.00043236491
3.7046128e-07
0.00043238278
3.6409075e-07
0.0004323997
3.5550224e-07
0.00043241616
3.4702653e-07
0.00043243196
3.382856e-07
0.00043244696
3.2880438e-07
0.00043246118
3.1879294e-07
0.00043247466
3.0854319e-07
0.00043248741
2.9815828e-07
0.00043249943
2.8766233e-07
0.00043251075
2.7708549e-07
0.00043252137
2.6647622e-07
0.00043253131
2.5587935e-07
0.0004325406
2.4533764e-07
0.00043254925
2.3488453e-07
0.00043255729
2.2455402e-07
0.00043256475
2.1437159e-07
0.00043257166
2.0436224e-07
0.00043257803
1.9453988e-07
0.00043258392
1.8491355e-07
0.00043258933
1.7547595e-07
0.0004325943
1.6620383e-07
0.00043259883
1.5704433e-07
0.00043260284
1.4792092e-07
0.00043260615
1.3876966e-07
0.0004326084
1.297171e-07
1.2140373e-07
0.00042990835
1.2088796e-07
0.00042994853
2.1860406e-07
0.0004299865
2.7994704e-07
0.00043002153
3.1935032e-07
0.00043005526
3.4900138e-07
0.00043008763
3.7167046e-07
0.00043011849
3.8826023e-07
0.00043014809
4.0041911e-07
0.00043017672
4.0959061e-07
0.0004302046
4.1663557e-07
0.00043023188
4.220889e-07
0.00043025871
4.2634731e-07
0.00043028518
4.2971268e-07
0.0004303114
4.3240684e-07
0.00043033741
4.3459185e-07
0.00043036328
4.3638843e-07
0.00043038903
4.3788754e-07
0.00043041471
4.3915817e-07
0.00043044033
4.4025249e-07
0.00043046592
4.412101e-07
0.00043049148
4.420612e-07
0.00043051704
4.4282938e-07
0.00043054259
4.4353321e-07
0.00043056815
4.4418711e-07
0.00043059371
4.4480173e-07
0.00043061929
4.4538425e-07
0.00043064489
4.4593906e-07
0.00043067051
4.4646967e-07
0.00043069614
4.4698066e-07
0.00043072178
4.4748084e-07
0.00043074744
4.4797262e-07
0.00043077318
4.4846124e-07
0.00043079894
4.4905181e-07
0.00043082471
4.4960716e-07
0.00043085049
4.5013405e-07
0.00043087629
4.5063712e-07
0.0004309021
4.5111828e-07
0.00043092794
4.5158029e-07
0.00043095379
4.5202606e-07
0.00043097966
4.5245722e-07
0.00043100556
4.5287568e-07
0.00043103149
4.5328467e-07
0.00043105744
4.5368809e-07
0.00043108342
4.540869e-07
0.00043110943
4.5448401e-07
0.00043113547
4.5488234e-07
0.00043116154
4.5528547e-07
0.00043118764
4.5569319e-07
0.00043121377
4.5610454e-07
0.00043123992
4.5651797e-07
0.0004312661
4.5693292e-07
0.00043129231
4.5734867e-07
0.00043131855
4.5776288e-07
0.00043134481
4.5817219e-07
0.00043137109
4.5857165e-07
0.0004313974
4.5895727e-07
0.00043142373
4.5932501e-07
0.00043145009
4.5967211e-07
0.00043147646
4.5999617e-07
0.00043150286
4.6030211e-07
0.00043152929
4.605903e-07
0.0004315557
4.602892e-07
0.00043158212
4.6050485e-07
0.00043160855
4.6068177e-07
0.000431635
4.6079236e-07
0.00043166143
4.6075188e-07
0.00043168788
4.6062905e-07
0.00043171432
4.6045116e-07
0.00043174073
4.6013241e-07
0.0004317671
4.5965647e-07
0.00043179343
4.5905937e-07
0.00043181973
4.5832908e-07
0.00043184596
4.574213e-07
0.0004318721
4.5631005e-07
0.00043189815
4.5498678e-07
0.0004319241
4.5343926e-07
0.00043194992
4.5164397e-07
0.00043197559
4.4957288e-07
0.0004320011
4.4719879e-07
0.00043202643
4.4449591e-07
0.00043205155
4.4143701e-07
0.00043207645
4.3799028e-07
0.0004321011
4.3411599e-07
0.00043212547
4.2976329e-07
0.00043214953
4.2486642e-07
0.00043217324
4.193401e-07
0.00043219652
4.1306928e-07
0.00043221923
4.0589516e-07
0.00043224104
3.9763203e-07
0.00043226133
3.8825865e-07
0.0004322791
3.7837289e-07
0.00043229479
3.589119e-07
0.00043231228
3.5463972e-07
0.00043233116
3.5158401e-07
0.00043234939
3.4584309e-07
0.00043236677
3.3811809e-07
0.00043238366
3.3014172e-07
0.00043239999
3.2196421e-07
0.00043241559
3.1320715e-07
0.00043243045
3.0394605e-07
0.00043244458
2.9441409e-07
0.00043245802
2.8472924e-07
0.00043247076
2.7492528e-07
0.00043248282
2.6503216e-07
0.00043249421
2.5509141e-07
0.00043250494
2.4514721e-07
0.00043251504
2.352383e-07
0.00043252452
2.2539921e-07
0.0004325334
2.156601e-07
0.00043254171
2.0604782e-07
0.00043254947
1.9658425e-07
0.00043255671
1.8728538e-07
0.00043256345
1.7815887e-07
0.00043256971
1.6920215e-07
0.00043257551
1.6039865e-07
0.00043258082
1.5171904e-07
0.00043258559
1.4313368e-07
0.0004325897
1.3465679e-07
0.00043259294
1.2648876e-07
1.1919348e-07
0.00042990063
1.0055687e-07
0.00042993262
1.8661975e-07
0.00042996589
2.4666944e-07
0.00042999785
2.8738446e-07
0.00043002909
3.1776646e-07
0.00043005958
3.4117523e-07
0.00043008911
3.5872958e-07
0.00043011773
3.7179454e-07
0.00043014563
3.8169081e-07
0.00043017296
3.8930643e-07
0.00043019984
3.9521206e-07
0.00043022636
3.9982383e-07
0.00043025261
4.0346053e-07
0.00043027866
4.0636039e-07
0.00043030456
4.0869999e-07
0.00043033034
4.1061085e-07
0.00043035603
4.1219302e-07
0.00043038167
4.1352191e-07
0.00043040727
4.1465583e-07
0.00043043285
4.1563835e-07
0.00043045841
4.1650381e-07
0.00043048396
4.1727774e-07
0.00043050952
4.1798102e-07
0.00043053509
4.1862869e-07
0.00043056066
4.192328e-07
0.00043058625
4.1980089e-07
0.00043061186
4.2033868e-07
0.00043063749
4.2085047e-07
0.00043066313
4.2134251e-07
0.00043068879
4.2182052e-07
0.00043071447
4.2229596e-07
0.00043074024
4.227021e-07
0.00043076601
4.2328406e-07
0.0004307918
4.2382355e-07
0.0004308176
4.2433148e-07
0.00043084342
4.2481286e-07
0.00043086926
4.2527106e-07
0.00043089513
4.2570917e-07
0.00043092101
4.261309e-07
0.00043094691
4.2653818e-07
0.00043097284
4.2693342e-07
0.00043099879
4.2731967e-07
0.00043102476
4.2770129e-07
0.00043105076
4.2807969e-07
0.00043107679
4.284569e-07
0.00043110284
4.2883498e-07
0.00043112891
4.2921679e-07
0.00043115501
4.2960279e-07
0.00043118114
4.2999207e-07
0.00043120729
4.3038322e-07
0.00043123346
4.3077522e-07
0.00043125966
4.3116709e-07
0.00043128588
4.3155679e-07
0.00043131212
4.3194091e-07
0.00043133839
4.3231517e-07
0.00043136468
4.3267519e-07
0.00043139099
4.3301731e-07
0.00043141733
4.3333877e-07
0.00043144369
4.336373e-07
0.00043147009
4.339075e-07
0.00043149653
4.3414803e-07
0.00043152291
4.3390335e-07
0.0004315493
4.3411958e-07
0.00043157569
4.3428177e-07
0.0004316021
4.343718e-07
0.00043162851
4.3433925e-07
0.00043165491
4.3421783e-07
0.00043168132
4.3403458e-07
0.00043170771
4.3373153e-07
0.00043173407
4.3328296e-07
0.0004317604
4.3271227e-07
0.00043178669
4.3201894e-07
0.00043181293
4.3116875e-07
0.00043183908
4.3013401e-07
0.00043186515
4.2890231e-07
0.00043189112
4.2746146e-07
0.00043191696
4.2579091e-07
0.00043194267
4.2386373e-07
0.00043196822
4.2165384e-07
0.00043199359
4.1913446e-07
0.00043201876
4.1627917e-07
0.00043204371
4.1305637e-07
0.00043206842
4.094292e-07
0.00043209285
4.0535086e-07
0.00043211698
4.0076463e-07
0.00043214074
3.9560136e-07
0.00043216406
3.8977844e-07
0.0004321868
3.8319887e-07
0.00043220869
3.7577799e-07
0.00043222937
3.6758881e-07
0.00043224842
3.5927101e-07
0.00043226569
3.4161965e-07
0.00043228375
3.3659095e-07
0.00043230273
3.3261122e-07
0.00043232138
3.2716869e-07
0.00043233929
3.2017332e-07
0.00043235667
3.1273921e-07
0.00043237354
3.0509277e-07
0.00043238975
2.9698604e-07
0.00043240527
2.8841897e-07
0.00043242011
2.7956695e-07
0.00043243428
2.705483e-07
0.00043244778
2.6140897e-07
0.00043246063
2.5217773e-07
0.00043247281
2.428937e-07
0.00043248436
2.3359581e-07
0.00043249526
2.2432223e-07
0.00043250556
2.1510294e-07
0.00043251525
2.0596745e-07
0.00043252437
1.9693795e-07
0.00043253292
1.8803637e-07
0.00043254094
1.7927614e-07
0.00043254844
1.7066778e-07
0.00043255543
1.622113e-07
0.00043256194
1.5390127e-07
0.00043256793
1.457261e-07
0.00043257338
1.3768877e-07
0.0004325782
1.2984165e-07
0.00043258236
1.2236077e-07
1.1549687e-07
0.00042989572
8.5141883e-08
0.00042992157
1.6076665e-07
0.00042995063
2.1760521e-07
0.00042997983
2.5818132e-07
0.00043000894
2.8865591e-07
0.00043003784
3.1227383e-07
0.00043006625
3.3031292e-07
0.0004300941
3.4394684e-07
0.00043012144
3.543456e-07
0.00043014837
3.6237628e-07
0.00043017496
3.6862287e-07
0.00043020127
3.7350984e-07
0.00043022737
3.7736306e-07
0.0004302533
3.8043019e-07
0.00043027911
3.828968e-07
0.00043030482
3.8490253e-07
0.00043033045
3.8655356e-07
0.00043035605
3.8793098e-07
0.0004303816
3.8909708e-07
0.00043040714
3.9009944e-07
0.00043043267
3.9097467e-07
0.00043045819
3.9175084e-07
0.00043048372
3.9244994e-07
0.00043050926
3.9308883e-07
0.00043053481
3.9368056e-07
0.00043056038
3.9423436e-07
0.00043058596
3.9475696e-07
0.00043061157
3.952539e-07
0.00043063718
3.9573183e-07
0.00043066281
3.9620089e-07
0.00043068845
3.9666856e-07
0.00043071417
3.9700178e-07
0.00043073991
3.9755985e-07
0.00043076568
3.9807892e-07
0.00043079146
3.9856778e-07
0.00043081726
3.9903092e-07
0.00043084308
3.9947102e-07
0.00043086892
3.9989042e-07
0.00043089477
4.002916e-07
0.00043092064
4.0067666e-07
0.00043094654
4.0104771e-07
0.00043097245
4.0140806e-07
0.00043099839
4.0176177e-07
0.00043102435
4.0211128e-07
0.00043105034
4.0245839e-07
0.00043107636
4.0280545e-07
0.00043110241
4.0315521e-07
0.00043112849
4.0350918e-07
0.00043115459
4.0386699e-07
0.00043118073
4.042276e-07
0.00043120689
4.0458978e-07
0.00043123307
4.0495257e-07
0.00043125929
4.0531401e-07
0.00043128553
4.0567105e-07
0.00043131179
4.0601959e-07
0.00043133807
4.063554e-07
0.00043136438
4.0667482e-07
0.00043139072
4.0697441e-07
0.00043141708
4.0725081e-07
0.00043144345
4.0750538e-07
0.00043146986
4.0772852e-07
0.00043149623
4.0752309e-07
0.00043152262
4.0772446e-07
0.00043154902
4.0787978e-07
0.00043157542
4.0796287e-07
0.00043160182
4.0793978e-07
0.00043162822
4.0782587e-07
0.00043165462
4.0764343e-07
0.00043168101
4.0735753e-07
0.00043170736
4.0694029e-07
0.00043173368
4.0640318e-07
0.00043175997
4.0574926e-07
0.00043178619
4.0495324e-07
0.00043181235
4.0398775e-07
0.00043183842
4.0283696e-07
0.00043186439
4.0148881e-07
0.00043189025
3.9992531e-07
0.00043191599
3.9812314e-07
0.00043194157
3.9605733e-07
0.00043196699
3.9370291e-07
0.00043199221
3.9103397e-07
0.00043201723
3.8802153e-07
0.000432042
3.8463142e-07
0.00043206651
3.8082267e-07
0.0004320907
3.7654714e-07
0.00043211453
3.717512e-07
0.00043213792
3.663774e-07
0.00043216074
3.6036973e-07
0.00043218279
3.5371011e-07
0.00043220378
3.4655156e-07
0.00043222356
3.3946534e-07
0.00043224178
3.2339578e-07
0.00043226031
3.1806999e-07
0.00043227933
3.1358686e-07
0.00043229812
3.083646e-07
0.0004323163
3.0198848e-07
0.00043233394
2.9509052e-07
0.00043235109
2.8794666e-07
0.00043236765
2.8043112e-07
0.00043238356
2.7251548e-07
0.00043239881
2.64318e-07
0.00043241342
2.5594553e-07
0.00043242738
2.4744865e-07
0.0004324407
2.3885818e-07
0.00043245339
2.3020821e-07
0.00043246545
2.2153548e-07
0.00043247689
2.1287417e-07
0.00043248773
2.0425406e-07
0.00043249799
1.9570149e-07
0.00043250768
1.8723921e-07
0.00043251681
1.7888694e-07
0.00043252542
1.7065995e-07
0.0004325335
1.6256884e-07
0.00043254109
1.5461853e-07
0.00043254817
1.4680987e-07
0.00043255474
1.391461e-07
0.00043256077
1.3164904e-07
0.00043256622
1.2438538e-07
0.00043257107
1.1751875e-07
1.1129663e-07
0.00042989244
7.3003922e-08
0.00042991372
1.3949062e-07
0.00042993911
1.9220869e-07
0.00042996572
2.3157144e-07
0.0004299928
2.6156869e-07
0.00043002009
2.8497952e-07
0.00043004729
3.0311758e-07
0.00043007421
3.1702039e-07
0.00043010085
3.2770891e-07
0.00043012723
3.3599782e-07
0.00043015338
3.4246536e-07
0.00043017936
3.4753548e-07
0.00043020519
3.515348e-07
0.00043023091
3.5471447e-07
0.00043025654
3.5726545e-07
0.00043028211
3.5933226e-07
0.00043030764
3.6102581e-07
0.00043033315
3.6243072e-07
0.00043035864
3.6361293e-07
0.00043038412
3.6462232e-07
0.0004304096
3.6549797e-07
0.00043043509
3.6626897e-07
0.00043046058
3.6695856e-07
0.0004304861
3.6758375e-07
0.00043051163
3.6815834e-07
0.00043053717
3.6869199e-07
0.00043056274
3.6919261e-07
0.00043058834
3.6966682e-07
0.00043061395
3.7012268e-07
0.00043063958
3.7056823e-07
0.00043066524
3.7101734e-07
0.00043069094
3.7129443e-07
0.00043071669
3.7181984e-07
0.00043074245
3.7231183e-07
0.00043076824
3.7277606e-07
0.00043079405
3.7321509e-07
0.00043081988
3.7363118e-07
0.00043084574
3.7402641e-07
0.00043087161
3.7440363e-07
0.0004308975
3.7476539e-07
0.00043092342
3.751146e-07
0.00043094935
3.7545422e-07
0.00043097531
3.7578814e-07
0.0004310013
3.7611854e-07
0.0004310273
3.7644721e-07
0.00043105334
3.7677576e-07
0.0004310794
3.7710649e-07
0.00043110548
3.7744065e-07
0.00043113159
3.7777809e-07
0.00043115772
3.7811762e-07
0.00043118387
3.7845792e-07
0.00043121005
3.7879766e-07
0.00043123625
3.7913517e-07
0.00043126248
3.7946738e-07
0.00043128872
3.7979081e-07
0.00043131499
3.8010106e-07
0.00043134128
3.8039468e-07
0.00043136759
3.8066817e-07
0.00043139393
3.809182e-07
0.0004314203
3.8113454e-07
0.00043144672
3.8130532e-07
0.00043147309
3.8115705e-07
0.00043149944
3.8136454e-07
0.00043152581
3.8150948e-07
0.00043155218
3.815788e-07
0.00043157856
3.8155315e-07
0.00043160494
3.8143991e-07
0.00043163131
3.8125529e-07
0.00043165768
3.8097786e-07
0.00043168402
3.8058444e-07
0.00043171033
3.8007738e-07
0.00043173661
3.7946007e-07
0.00043176283
3.787141e-07
0.00043178899
3.7781531e-07
0.00043181506
3.7674698e-07
0.00043184105
3.7549629e-07
0.00043186692
3.7404717e-07
0.00043189266
3.7237721e-07
0.00043191826
3.7046318e-07
0.00043194369
3.6827967e-07
0.00043196894
3.6580244e-07
0.00043199397
3.6300355e-07
0.00043201877
3.5985292e-07
0.0004320433
3.5631469e-07
0.00043206752
3.5235002e-07
0.00043209138
3.4791843e-07
0.0004321148
3.4298335e-07
0.00043213768
3.375208e-07
0.00043215986
3.3154869e-07
0.0004321812
3.2520939e-07
0.00043220167
3.1896155e-07
0.00043222075
3.0431461e-07
0.0004322398
2.9904234e-07
0.00043225904
2.9434767e-07
0.0004322781
2.892924e-07
0.00043229664
2.8341995e-07
0.00043231467
2.7704304e-07
0.0004323322
2.7039893e-07
0.00043234919
2.6344212e-07