/*--------------------------------*- C++ -*----------------------------------*\
  =========                 |
  \\      /  F ield         | OpenFOAM: The Open Source CFD Toolbox
   \\    /   O peration     | Website:  https://openfoam.org
    \\  /    A nd           | Version:  13
     \\/     M anipulation  |
\*---------------------------------------------------------------------------*/
FoamFile
{
    format      ascii;
    class       volVectorField;
    location    "50";
    object      U;
}
// * * * * * * * * * * * * * * * * * * * * * * * * * * * * * * * * * * * * * //

dimensions      [0 1 -1 0 0 0 0];

internalField   nonuniform List<vector> 
5760
(
(9.9898567 0.0036497343 0)
(9.9813082 0.0045092729 0)
(9.9700193 0.0047780138 0)
(9.9576368 0.0050314883 0)
(9.945147 0.0052356966 0)
(9.9326349 0.0053760093 0)
(9.9200428 0.0054756891 0)
(9.9073778 0.005551777 0)
(9.8946696 0.0056116429 0)
(9.8819371 0.0056591751 0)
(9.8691896 0.0056972264 0)
(9.8564332 0.0057279317 0)
(9.8436723 0.005752823 0)
(9.8309108 0.0057730124 0)
(9.8181512 0.0057893441 0)
(9.8053957 0.0058024767 0)
(9.7926458 0.0058129256 0)
(9.7799026 0.0058210853 0)
(9.767167 0.0058272676 0)
(9.7544397 0.0058317362 0)
(9.7417211 0.0058347381 0)
(9.7290116 0.0058364951 0)
(9.7163117 0.0058371874 0)
(9.7036219 0.0058369253 0)
(9.6909426 0.0058357576 0)
(9.6782738 0.0058336952 0)
(9.6656154 0.0058307628 0)
(9.6529668 0.0058270283 0)
(9.6403279 0.0058226244 0)
(9.6276984 0.005817718 0)
(9.6150786 0.0058124666 0)
(9.6024684 0.0058074104 0)
(9.589868 0.0058018164 0)
(9.5772783 0.0057960412 0)
(9.5647008 0.005789998 0)
(9.5521352 0.0057836515 0)
(9.5395826 0.0057769601 0)
(9.527042 0.0057698536 0)
(9.5145135 0.0057621915 0)
(9.5019957 0.0057540471 0)
(9.4894883 0.0057455472 0)
(9.4769909 0.0057366655 0)
(9.4645025 0.0057274219 0)
(9.452023 0.0057178807 0)
(9.4395518 0.0057082924 0)
(9.4270899 0.0056987315 0)
(9.4146374 0.0056892547 0)
(9.4021953 0.0056797561 0)
(9.3897631 0.0056702398 0)
(9.3773413 0.0056606923 0)
(9.36493 0.0056511607 0)
(9.3525298 0.0056416561 0)
(9.340141 0.0056321576 0)
(9.3277639 0.005622668 0)
(9.315399 0.005613148 0)
(9.3030462 0.0056036291 0)
(9.2907063 0.0055940599 0)
(9.2783789 0.0055844354 0)
(9.266065 0.005574648 0)
(9.2537637 0.0055646519 0)
(9.2414768 0.0055545562 0)
(9.2291954 0.0055424303 0)
(9.216932 0.0055347701 0)
(9.204689 0.0055243503 0)
(9.1924575 0.0055091353 0)
(9.1802308 0.0054988123 0)
(9.1680273 0.0054900941 0)
(9.155848 0.0054781424 0)
(9.1436835 0.0054650987 0)
(9.1315366 0.0054533387 0)
(9.119416 0.0054421351 0)
(9.1073257 0.0054300562 0)
(9.095265 0.0054167392 0)
(9.0832342 0.0054025287 0)
(9.0712363 0.0053876807 0)
(9.0592761 0.0053721175 0)
(9.0473579 0.0053555815 0)
(9.0354858 0.005337837 0)
(9.0236641 0.0053187503 0)
(9.0118978 0.0052982512 0)
(9.0001927 0.0052762597 0)
(8.9885554 0.0052526246 0)
(8.9769931 0.0052271216 0)
(8.9655132 0.0051994676 0)
(8.9541238 0.0051693242 0)
(8.942834 0.0051362208 0)
(8.9316553 0.0050993541 0)
(8.9206031 0.0050570187 0)
(8.9096977 0.0050038314 0)
(8.899046 0.0049315444 0)
(8.888171 0.0047355861 0)
(8.8790386 0.0046454705 0)
(8.8687026 0.0047970307 0)
(8.8590421 0.0047732218 0)
(8.8493335 0.0046673948 0)
(8.8396216 0.0045853865 0)
(8.8301286 0.0045181141 0)
(8.8208874 0.0044444368 0)
(8.8118599 0.0043625063 0)
(8.8030358 0.0042761238 0)
(8.7944282 0.0041869873 0)
(8.7860503 0.0040951105 0)
(8.7779091 0.0040002626 0)
(8.7700081 0.0039023682 0)
(8.7623499 0.0038015194 0)
(8.7549364 0.0036979069 0)
(8.7477693 0.0035918371 0)
(8.7408497 0.0034836909 0)
(8.7341785 0.0033739087 0)
(8.7277557 0.0032629054 0)
(8.721581 0.0031510665 0)
(8.7156531 0.003038718 0)
(8.7099698 0.0029261829 0)
(8.7045283 0.0028137592 0)
(8.6993258 0.0027017073 0)
(8.6943593 0.002590046 0)
(8.6896284 0.0024780509 0)
(8.6851367 0.0023620953 0)
(8.6809498 0.002227056 0)
(8.6765561 0.0018979431 0)
(10.001897 0.0057010374 0)
(10.005055 0.0068467818 0)
(10.006874 0.0069430011 0)
(10.007844 0.0071058357 0)
(10.008644 0.0072541391 0)
(10.00939 0.0073260299 0)
(10.010041 0.0073532249 0)
(10.010596 0.0073629964 0)
(10.011079 0.0073642151 0)
(10.011504 0.0073597235 0)
(10.011883 0.0073515999 0)
(10.012219 0.0073414536 0)
(10.012517 0.0073302929 0)
(10.01278 0.0073187118 0)
(10.013011 0.007307093 0)
(10.013212 0.0072956996 0)
(10.013385 0.0072846926 0)
(10.01353 0.0072741346 0)
(10.013649 0.0072640365 0)
(10.013742 0.0072544206 0)
(10.01381 0.0072453643 0)
(10.013853 0.0072369663 0)
(10.013871 0.0072292774 0)
(10.013866 0.0072222256 0)
(10.013838 0.0072156208 0)
(10.013787 0.0072092207 0)
(10.013712 0.0072028488 0)
(10.013614 0.0071964799 0)
(10.013493 0.0071902719 0)
(10.013348 0.0071845013 0)
(10.01318 0.0071794655 0)
(10.012988 0.0071763273 0)
(10.012774 0.0071731518 0)
(10.012538 0.0071707289 0)
(10.01228 0.0071688111 0)
(10.012002 0.007167185 0)
(10.011704 0.0071656621 0)
(10.011385 0.0071639363 0)
(10.011045 0.0071616555 0)
(10.010684 0.0071589257 0)
(10.010301 0.0071559416 0)
(10.009896 0.0071526239 0)
(10.009468 0.0071489459 0)
(10.009018 0.0071451177 0)
(10.008545 0.0071416437 0)
(10.008049 0.0071387428 0)
(10.007532 0.0071364408 0)
(10.006993 0.0071345062 0)
(10.006433 0.0071328686 0)
(10.005853 0.0071315025 0)
(10.005251 0.0071304797 0)
(10.00463 0.0071297957 0)
(10.00399 0.0071293837 0)
(10.00333 0.0071291795 0)
(10.002651 0.00712909 0)
(10.001954 0.0071290962 0)
(10.001239 0.0071290732 0)
(10.000506 0.007128894 0)
(9.9997551 0.0071282703 0)
(9.9989871 0.0071269348 0)
(9.9982019 0.0071248903 0)
(9.9973965 0.0071180971 0)
(9.9965813 0.0071135434 0)
(9.9957481 0.0071100175 0)
(9.9949013 0.0070984541 0)
(9.9940341 0.0070946574 0)
(9.9931559 0.0070922245 0)
(9.9922707 0.0070823449 0)
(9.9913735 0.0070696954 0)
(9.9904654 0.0070590583 0)
(9.9895525 0.0070485713 0)
(9.9886386 0.0070349266 0)
(9.9877237 0.0070172848 0)
(9.9868083 0.0069964387 0)
(9.9858948 0.0069729638 0)
(9.9849867 0.0069466434 0)
(9.9840874 0.0069168563 0)
(9.9832 0.0068830707 0)
(9.9823275 0.0068450314 0)
(9.9814734 0.0068026644 0)
(9.9806417 0.0067558837 0)
(9.9798366 0.0067044503 0)
(9.9790627 0.0066479564 0)
(9.9783246 0.0065858572 0)
(9.9776274 0.00651746 0)
(9.9769764 0.006441707 0)
(9.9763788 0.0063565663 0)
(9.9758451 0.0062574531 0)
(9.9753888 0.006131551 0)
(9.9750656 0.0059540607 0)
(9.9746283 0.0055255794 0)
(9.9752429 0.0052889533 0)
(9.9749893 0.0055758773 0)
(9.9751092 0.0055433555 0)
(9.9751861 0.0053554306 0)
(9.9752044 0.0052144765 0)
(9.9752938 0.0051035663 0)
(9.975481 0.0049798714 0)
(9.9757372 0.0048405575 0)
(9.9760481 0.0046952086 0)
(9.9764161 0.004548486 0)
(9.9768446 0.0044008762 0)
(9.9773326 0.0042520623 0)
(9.9778763 0.0041020056 0)
(9.9784715 0.0039509635 0)
(9.9791134 0.0037993598 0)
(9.9797977 0.0036477833 0)
(9.9805197 0.003496927 0)
(9.9812752 0.0033475167 0)
(9.9820597 0.0032001612 0)
(9.9828689 0.0030553125 0)
(9.9836985 0.0029132528 0)
(9.9845441 0.0027741936 0)
(9.9854016 0.0026382743 0)
(9.9862672 0.002505482 0)
(9.9871383 0.0023752356 0)
(9.9880133 0.0022453735 0)
(9.988893 0.0021087448 0)
(9.9897667 0.0019427156 0)
(9.9905796 0.0015941127 0)
(10.00101 0.0035563552 0)
(10.003069 0.004572692 0)
(10.004765 0.0047297554 0)
(10.005894 0.0049276571 0)
(10.006831 0.0051365694 0)
(10.00772 0.0052801823 0)
(10.008548 0.0053763635 0)
(10.009313 0.0054509112 0)
(10.010031 0.00551306 0)
(10.010716 0.0055654616 0)
(10.011379 0.0056102017 0)
(10.012023 0.0056491931 0)
(10.012653 0.0056838191 0)
(10.013273 0.0057150218 0)
(10.013884 0.0057434986 0)
(10.014489 0.0057697929 0)
(10.015089 0.0057943065 0)
(10.015685 0.0058173076 0)
(10.016278 0.0058389919 0)
(10.016868 0.0058595626 0)
(10.017457 0.0058792756 0)
(10.018043 0.0058983907 0)
(10.018628 0.0059170731 0)
(10.019212 0.0059353049 0)
(10.019795 0.0059529003 0)
(10.020377 0.0059696087 0)
(10.020958 0.0059852804 0)
(10.021538 0.0059999857 0)
(10.022116 0.0060140438 0)
(10.022692 0.0060279269 0)
(10.023268 0.0060421266 0)
(10.023841 0.0060582996 0)
(10.024413 0.0060738791 0)
(10.024984 0.006089815 0)
(10.025555 0.0061058668 0)
(10.026126 0.0061217311 0)
(10.026698 0.0061370685 0)
(10.02727 0.0061514689 0)
(10.027841 0.0061646161 0)
(10.028412 0.0061766192 0)
(10.028981 0.0061876611 0)
(10.029549 0.0061977375 0)
(10.030113 0.006206931 0)
(10.030675 0.006215662 0)
(10.031234 0.0062245631 0)
(10.03179 0.0062339711 0)
(10.032343 0.006243881 0)
(10.032895 0.0062540587 0)
(10.033444 0.0062644012 0)
(10.033991 0.0062749209 0)
(10.034536 0.0062857109 0)
(10.03508 0.006296775 0)
(10.035623 0.0063080385 0)
(10.036164 0.006319397 0)
(10.036705 0.0063307539 0)
(10.037245 0.0063420436 0)
(10.037785 0.0063531239 0)
(10.038324 0.0063637802 0)
(10.038862 0.0063736532 0)
(10.039399 0.0063823612 0)
(10.039934 0.0063897501 0)
(10.040465 0.0063868785 0)
(10.040992 0.0063932741 0)
(10.041518 0.0063991282 0)
(10.042046 0.0063995128 0)
(10.042565 0.0064033077 0)
(10.043081 0.0064068205 0)
(10.043597 0.0064039451 0)
(10.044112 0.0063987923 0)
(10.044623 0.0063954312 0)
(10.045131 0.0063916509 0)
(10.045639 0.0063838493 0)
(10.046145 0.0063711487 0)
(10.046649 0.0063545254 0)
(10.047149 0.0063346679 0)
(10.047645 0.0063112874 0)
(10.048138 0.0062836215 0)
(10.048628 0.0062510646 0)
(10.049113 0.0062133928 0)
(10.049595 0.0061706104 0)
(10.050073 0.0061226835 0)
(10.050547 0.0060693529 0)
(10.051018 0.0060101188 0)
(10.051485 0.0059442817 0)
(10.051951 0.005870925 0)
(10.052415 0.0057886328 0)
(10.052878 0.0056947262 0)
(10.053342 0.0055834795 0)
(10.053807 0.005441246 0)
(10.054267 0.005241233 0)
(10.05462 0.0048481389 0)
(10.054756 0.0045780396 0)
(10.05507 0.0048066687 0)
(10.055548 0.0047872395 0)
(10.056003 0.0046214773 0)
(10.056372 0.0044880665 0)
(10.056718 0.0043802013 0)
(10.05707 0.0042571997 0)
(10.057415 0.0041163287 0)
(10.057743 0.0039691414 0)
(10.058053 0.003821708 0)
(10.058351 0.0036746991 0)
(10.058638 0.0035275545 0)
(10.058912 0.0033800818 0)
(10.059174 0.0032325273 0)
(10.059423 0.0030853943 0)
(10.059658 0.0029393922 0)
(10.05988 0.0027953447 0)
(10.060088 0.0026540705 0)
(10.060284 0.0025162063 0)
(10.060468 0.0023821533 0)
(10.06064 0.0022520885 0)
(10.060801 0.0021260873 0)
(10.060953 0.0020041339 0)
(10.061095 0.0018859969 0)
(10.061228 0.0017707611 0)
(10.061355 0.0016558925 0)
(10.061472 0.0015352193 0)
(10.061568 0.001396151 0)
(10.061593 0.0012426264 0)
(10.00061 0.0026308486 0)
(10.002062 0.004055171 0)
(10.003531 0.0046853702 0)
(10.004625 0.0051339076 0)
(10.005523 0.0055031356 0)
(10.006362 0.0057677953 0)
(10.007154 0.005949246 0)
(10.007896 0.0060799448 0)
(10.008596 0.0061779306 0)
(10.009268 0.0062519676 0)
(10.00992 0.0063080272 0)
(10.010556 0.006350783 0)
(10.011181 0.0063836679 0)
(10.011798 0.0064091268 0)
(10.012408 0.0064289472 0)
(10.013013 0.0064444644 0)
(10.013615 0.0064566667 0)
(10.014215 0.0064662743 0)
(10.014812 0.0064738435 0)
(10.015408 0.006479862 0)
(10.016004 0.0064847934 0)
(10.016599 0.0064890298 0)
(10.017194 0.0064928043 0)
(10.01779 0.0064961274 0)
(10.018385 0.0064988298 0)
(10.018981 0.0065006952 0)
(10.019577 0.0065016415 0)
(10.020174 0.0065018391 0)
(10.02077 0.0065017219 0)
(10.021367 0.0065018658 0)
(10.021964 0.0065028121 0)
(10.022561 0.0065062427 0)
(10.023158 0.0065096255 0)
(10.023756 0.0065136909 0)
(10.024355 0.0065181669 0)
(10.024955 0.0065226311 0)
(10.025557 0.006526568 0)
(10.026161 0.0065295891 0)
(10.026766 0.0065314498 0)
(10.027371 0.0065321468 0)
(10.027977 0.0065317935 0)
(10.028583 0.0065305318 0)
(10.029189 0.0065286628 0)
(10.029794 0.006526701 0)
(10.030398 0.00652525 0)
(10.031002 0.0065246114 0)
(10.031606 0.0065247824 0)
(10.032209 0.0065255602 0)
(10.032813 0.0065268545 0)
(10.033416 0.0065286755 0)
(10.03402 0.0065310929 0)
(10.034625 0.0065340892 0)
(10.035231 0.0065375626 0)
(10.035838 0.0065413819 0)
(10.036446 0.0065454172 0)
(10.037056 0.0065495613 0)
(10.037667 0.0065536269 0)
(10.03828 0.0065573524 0)
(10.038894 0.006560344 0)
(10.039508 0.0065622585 0)
(10.040123 0.0065628759 0)
(10.040735 0.0065551843 0)
(10.041347 0.0065536559 0)
(10.04196 0.0065536011 0)
(10.042576 0.0065502399 0)
(10.043188 0.0065459194 0)
(10.043796 0.0065422265 0)
(10.044407 0.0065364949 0)
(10.04502 0.0065294071 0)
(10.04563 0.0065228135 0)
(10.046238 0.0065154081 0)
(10.046845 0.0065047272 0)
(10.047452 0.0064900499 0)
(10.048057 0.0064720743 0)
(10.048659 0.0064513007 0)
(10.049258 0.0064274294 0)
(10.049852 0.0063997907 0)
(10.050443 0.0063679049 0)
(10.051029 0.0063316573 0)
(10.05161 0.0062911167 0)
(10.052185 0.0062462661 0)
(10.052755 0.0061968281 0)
(10.053318 0.0061422615 0)
(10.053875 0.0060818069 0)
(10.054426 0.0060144703 0)
(10.054969 0.0059387776 0)
(10.055506 0.0058521661 0)
(10.056035 0.0057497769 0)
(10.056551 0.0056220914 0)
(10.057035 0.0054554559 0)
(10.057466 0.0052149974 0)
(10.057631 0.0049756327 0)
(10.057991 0.0050731973 0)
(10.058421 0.0050582324 0)
(10.058867 0.0049323014 0)
(10.059261 0.0048078957 0)
(10.059618 0.0047000837 0)
(10.059966 0.0045834409 0)
(10.060304 0.0044530805 0)
(10.060622 0.0043171002 0)
(10.060921 0.0041805453 0)
(10.061201 0.004043772 0)
(10.061465 0.003905894 0)
(10.061712 0.0037664828 0)
(10.061943 0.0036256963 0)
(10.062158 0.0034840478 0)
(10.062356 0.0033422833 0)
(10.062539 0.0032012496 0)
(10.062708 0.003061761 0)
(10.062862 0.0029244412 0)
(10.063003 0.0027896886 0)
(10.063132 0.0026577034 0)
(10.06325 0.0025286017 0)
(10.063358 0.0024024148 0)
(10.063456 0.0022789611 0)
(10.063545 0.0021574687 0)
(10.063626 0.0020360433 0)
(10.063695 0.0019111408 0)
(10.063744 0.0017790782 0)
(10.06375 0.0016491703 0)
(10.000387 0.0020157656 0)
(10.001413 0.0033601152 0)
(10.002605 0.004024286 0)
(10.003598 0.0044190401 0)
(10.00444 0.0047140015 0)
(10.005231 0.0049221583 0)
(10.005991 0.0050593684 0)
(10.006713 0.0051525121 0)
(10.007402 0.0052193177 0)
(10.008067 0.0052684584 0)
(10.008715 0.0053050775 0)
(10.00935 0.0053329475 0)
(10.009974 0.0053547724 0)
(10.010591 0.0053723934 0)
(10.011202 0.0053870682 0)
(10.011808 0.0053996711 0)
(10.012411 0.005410813 0)
(10.013011 0.0054209268 0)
(10.01361 0.005430349 0)
(10.014208 0.0054393719 0)
(10.014805 0.0054482543 0)
(10.015402 0.0054571708 0)
(10.015998 0.0054661541 0)
(10.016594 0.0054750654 0)
(10.017191 0.0054836618 0)
(10.017787 0.0054917215 0)
(10.018384 0.0054991984 0)
(10.018981 0.0055063003 0)
(10.019579 0.0055134657 0)
(10.020177 0.0055212181 0)
(10.020775 0.0055299864 0)
(10.021373 0.0055408921 0)
(10.021972 0.0055523998 0)
(10.022571 0.0055645119 0)
(10.023171 0.005576886 0)
(10.023772 0.0055889982 0)
(10.024375 0.0056003184 0)
(10.02498 0.0056105237 0)
(10.025585 0.0056193941 0)
(10.026192 0.0056268325 0)
(10.026799 0.0056329763 0)
(10.027406 0.0056381843 0)
(10.028013 0.005642925 0)
(10.02862 0.0056476887 0)
(10.029226 0.0056529197 0)
(10.029832 0.0056588599 0)
(10.030437 0.0056655397 0)
(10.031042 0.0056728502 0)
(10.031647 0.00568072 0)
(10.032252 0.0056891359 0)
(10.032858 0.0056981112 0)
(10.033464 0.0057075957 0)
(10.034071 0.0057174719 0)
(10.03468 0.0057275873 0)
(10.03529 0.0057377864 0)
(10.035902 0.0057479078 0)
(10.036515 0.0057577335 0)
(10.037129 0.0057669721 0)
(10.037745 0.0057752638 0)
(10.038362 0.0057823055 0)
(10.03898 0.0057879443 0)
(10.039594 0.005784435 0)
(10.040209 0.0057881775 0)
(10.040825 0.0057928669 0)
(10.041443 0.0057946016 0)
(10.042058 0.0057942744 0)
(10.04267 0.0057955534 0)
(10.043285 0.0057965199 0)
(10.043901 0.0057950818 0)
(10.044515 0.0057919638 0)
(10.045127 0.0057873829 0)
(10.045739 0.0057801627 0)
(10.04635 0.0057694556 0)
(10.046961 0.0057552953 0)
(10.047568 0.0057378312 0)
(10.048173 0.0057168293 0)
(10.048773 0.0056918536 0)
(10.04937 0.0056626099 0)
(10.049963 0.0056290484 0)
(10.050551 0.0055912095 0)
(10.051134 0.0055490261 0)
(10.051711 0.0055021951 0)
(10.052283 0.0054501833 0)
(10.052848 0.0053922457 0)
(10.053407 0.005327405 0)
(10.053958 0.0052542553 0)
(10.054501 0.0051705548 0)
(10.055034 0.0050725212 0)
(10.05555 0.0049540713 0)
(10.056031 0.0048092748 0)
(10.056495 0.0046364555 0)
(10.05675 0.0043851981 0)
(10.05715 0.0043962734 0)
(10.057562 0.0043735803 0)
(10.058003 0.0042708218 0)
(10.05842 0.0041522969 0)
(10.058803 0.004045824 0)
(10.059171 0.003938185 0)
(10.059528 0.0038214079 0)
(10.059869 0.0036989685 0)
(10.060191 0.0035747919 0)
(10.060496 0.0034496559 0)
(10.060784 0.0033231227 0)
(10.061055 0.0031950511 0)
(10.061311 0.0030658294 0)
(10.061551 0.0029361462 0)
(10.061775 0.0028068372 0)
(10.061983 0.0026787392 0)
(10.062177 0.0025526015 0)
(10.062357 0.0024289789 0)
(10.062523 0.0023082403 0)
(10.062677 0.0021905836 0)
(10.062818 0.0020761209 0)
(10.062949 0.0019648442 0)
(10.06307 0.0018565247 0)
(10.063181 0.0017504618 0)
(10.063281 0.0016453072 0)
(10.063369 0.0015392404 0)
(10.063438 0.0014321524 0)
(10.063491 0.0013321891 0)
(10.000263 0.0016099579 0)
(10.001017 0.0028360341 0)
(10.001995 0.0035673352 0)
(10.002899 0.0040394809 0)
(10.003699 0.0044040447 0)
(10.004456 0.0046871021 0)
(10.005188 0.0048985399 0)
(10.005892 0.005058313 0)
(10.006569 0.0051829679 0)
(10.007224 0.0052819906 0)
(10.007865 0.0053612956 0)
(10.008493 0.0054253752 0)
(10.009112 0.0054777122 0)
(10.009724 0.0055209053 0)
(10.010331 0.0055568833 0)
(10.010933 0.0055871063 0)
(10.011533 0.0056127128 0)
(10.012131 0.0056346169 0)
(10.012727 0.0056535704 0)
(10.013322 0.0056701857 0)
(10.013917 0.0056849394 0)
(10.014512 0.005698154 0)
(10.015106 0.0057099995 0)
(10.0157 0.0057205156 0)
(10.016295 0.0057296955 0)
(10.016889 0.0057375839 0)
(10.017485 0.0057443797 0)
(10.01808 0.0057504608 0)
(10.018677 0.0057563338 0)
(10.019274 0.0057624933 0)
(10.019871 0.0057692625 0)
(10.020467 0.0057768388 0)
(10.021066 0.0057855363 0)
(10.021664 0.0057943296 0)
(10.022263 0.0058028805 0)
(10.022863 0.0058107301 0)
(10.023465 0.0058174612 0)
(10.024067 0.0058228192 0)
(10.024671 0.0058266321 0)
(10.025276 0.0058288805 0)
(10.025881 0.0058298502 0)
(10.026486 0.0058300563 0)
(10.027092 0.0058300067 0)
(10.027698 0.0058300782 0)
(10.028303 0.0058305727 0)
(10.028908 0.0058317009 0)
(10.029513 0.0058335673 0)
(10.030117 0.0058361475 0)
(10.030722 0.0058393772 0)
(10.031327 0.0058431924 0)
(10.031933 0.0058475451 0)
(10.032539 0.0058523605 0)
(10.033147 0.0058575208 0)
(10.033755 0.0058628746 0)
(10.034365 0.0058682496 0)
(10.034976 0.0058734599 0)
(10.035589 0.0058782847 0)
(10.036203 0.0058824715 0)
(10.036819 0.0058857534 0)
(10.037435 0.0058879444 0)
(10.038051 0.0058890439 0)
(10.038665 0.0058823573 0)
(10.03928 0.0058827448 0)
(10.039895 0.0058830538 0)
(10.040513 0.0058814575 0)
(10.041128 0.005878626 0)
(10.041742 0.0058770537 0)
(10.042357 0.0058750988 0)
(10.042973 0.0058704993 0)
(10.043587 0.0058639184 0)
(10.044199 0.0058563608 0)
(10.044811 0.0058472039 0)
(10.045423 0.0058353054 0)
(10.046033 0.0058201575 0)
(10.046642 0.005801741 0)
(10.047247 0.0057800383 0)
(10.047849 0.0057549155 0)
(10.048448 0.0057262437 0)
(10.049043 0.0056939674 0)
(10.049634 0.0056580334 0)
(10.05022 0.0056182945 0)
(10.050801 0.005574429 0)
(10.051377 0.0055259311 0)
(10.051946 0.0054720912 0)
(10.052509 0.0054119657 0)
(10.053065 0.0053442567 0)
(10.053612 0.0052671108 0)
(10.054147 0.005177832 0)
(10.054665 0.005072997 0)
(10.055148 0.0049513308 0)
(10.055633 0.0048213869 0)
(10.055945 0.0045925273 0)
(10.056377 0.0045662563 0)
(10.056781 0.0045346587 0)
(10.057214 0.0044506992 0)
(10.057641 0.0043467522 0)
(10.058042 0.0042484815 0)
(10.058423 0.0041499112 0)
(10.058792 0.0040429576 0)
(10.059147 0.0039286514 0)
(10.059484 0.0038104669 0)
(10.059805 0.0036898945 0)
(10.060109 0.0035670935 0)
(10.060397 0.0034421928 0)
(10.06067 0.0033156811 0)
(10.060927 0.0031882586 0)
(10.061169 0.0030606973 0)
(10.061397 0.0029337215 0)
(10.06161 0.0028079766 0)
(10.06181 0.0026839775 0)
(10.061996 0.002562132 0)
(10.06217 0.002442721 0)
(10.062332 0.0023259288 0)
(10.062484 0.002211781 0)
(10.062624 0.0021000846 0)
(10.062754 0.001990313 0)
(10.062873 0.0018816649 0)
(10.062978 0.0017735147 0)
(10.063066 0.0016671793 0)
(10.063146 0.0015685243 0)
(10.000189 0.0013230524 0)
(10.000761 0.0024120843 0)
(10.001564 0.0031409109 0)
(10.002367 0.0036267998 0)
(10.003111 0.0039874892 0)
(10.003823 0.0042601466 0)
(10.004518 0.0044585928 0)
(10.005195 0.0046013977 0)
(10.005852 0.0047056669 0)
(10.006494 0.0047825925 0)
(10.007123 0.0048393706 0)
(10.007743 0.004881262 0)
(10.008356 0.0049122544 0)
(10.008964 0.0049352801 0)
(10.009567 0.0049524623 0)
(10.010168 0.0049653626 0)
(10.010766 0.0049751669 0)
(10.011362 0.004982794 0)
(10.011958 0.0049889466 0)
(10.012553 0.0049941249 0)
(10.013148 0.004998646 0)
(10.013742 0.0050026736 0)
(10.014337 0.0050062726 0)
(10.014931 0.0050094656 0)
(10.015526 0.0050123008 0)
(10.01612 0.0050149006 0)
(10.016716 0.0050174947 0)
(10.017312 0.0050203978 0)
(10.017909 0.005023948 0)
(10.018506 0.0050283995 0)
(10.019104 0.005033821 0)
(10.019702 0.0050391738 0)
(10.0203 0.0050469703 0)
(10.0209 0.0050549558 0)
(10.021499 0.0050627903 0)
(10.0221 0.005070075 0)
(10.022701 0.0050764584 0)
(10.023304 0.0050817148 0)
(10.023908 0.0050857567 0)
(10.024512 0.0050886876 0)
(10.025118 0.0050908501 0)
(10.025724 0.0050927094 0)
(10.02633 0.0050946471 0)
(10.026936 0.0050969015 0)
(10.027542 0.0050996695 0)
(10.028148 0.0051031389 0)
(10.028753 0.0051074331 0)
(10.029358 0.0051125397 0)
(10.029963 0.0051183518 0)
(10.030569 0.0051247373 0)
(10.031174 0.0051315917 0)
(10.031781 0.0051388214 0)
(10.032388 0.0051463141 0)
(10.032996 0.0051539192 0)
(10.033606 0.0051614564 0)
(10.034217 0.0051687309 0)
(10.034829 0.0051755466 0)
(10.035442 0.0051817143 0)
(10.036057 0.0051870719 0)
(10.036672 0.0051915311 0)
(10.037288 0.0051951236 0)
(10.037902 0.0051919286 0)
(10.038517 0.0051950912 0)
(10.039131 0.0051978796 0)
(10.039747 0.0051995004 0)
(10.040363 0.005199984 0)
(10.040976 0.0052005754 0)
(10.04159 0.0052005137 0)
(10.042205 0.0051983187 0)
(10.042819 0.005194301 0)
(10.043432 0.0051891865 0)
(10.044043 0.005182426 0)
(10.044654 0.0051728524 0)
(10.045265 0.0051598436 0)
(10.045873 0.0051434237 0)
(10.046478 0.0051237801 0)
(10.047081 0.0051009631 0)
(10.04768 0.0050748857 0)
(10.048276 0.0050454124 0)
(10.048868 0.0050123858 0)
(10.049456 0.0049756091 0)
(10.050039 0.0049347847 0)
(10.050616 0.0048894725 0)
(10.051187 0.0048390316 0)
(10.051752 0.0047825957 0)
(10.052309 0.0047190324 0)
(10.052857 0.0046469048 0)
(10.053392 0.0045644417 0)
(10.053911 0.0044700314 0)
(10.054398 0.0043648149 0)
(10.054902 0.0042590857 0)
(10.055256 0.0040444481 0)
(10.055713 0.003997026 0)
(10.056122 0.0039547876 0)
(10.056553 0.0038817673 0)
(10.056992 0.0037897951 0)
(10.057408 0.0036976688 0)
(10.057803 0.003604855 0)
(10.058185 0.0035058274 0)
(10.058554 0.0034006937 0)
(10.058907 0.0032922222 0)
(10.059244 0.0031820078 0)
(10.059565 0.0030703927 0)
(10.059871 0.0029575063 0)
(10.060162 0.0028437261 0)
(10.060438 0.0027296061 0)
(10.060699 0.0026157523 0)
(10.060946 0.0025027345 0)
(10.061178 0.0023910849 0)
(10.061396 0.0022812736 0)
(10.061602 0.0021737112 0)
(10.061794 0.0020686893 0)
(10.061975 0.0019663613 0)
(10.062144 0.0018666824 0)
(10.062301 0.0017694045 0)
(10.062448 0.0016740847 0)
(10.062582 0.0015802825 0)
(10.062703 0.0014880314 0)
(10.062808 0.001399056 0)
(10.062919 0.0013175699 0)
(10.000142 0.0011105421 0)
(10.000589 0.0020711952 0)
(10.001256 0.0027713609 0)
(10.001969 0.0032631199 0)
(10.002659 0.0036319579 0)
(10.003332 0.0039173142 0)
(10.003997 0.0041348774 0)
(10.004652 0.0043001038 0)
(10.005295 0.0044277241 0)
(10.005925 0.0045281247 0)
(10.006547 0.0046080976 0)
(10.007162 0.0046725153 0)
(10.007771 0.0047250684 0)
(10.008375 0.0047685136 0)
(10.008976 0.0048048903 0)
(10.009575 0.0048357396 0)
(10.010171 0.0048622626 0)
(10.010767 0.0048854006 0)
(10.011361 0.0049058652 0)
(10.011955 0.0049241501 0)
(10.012549 0.0049405734 0)
(10.013143 0.00495534 0)
(10.013737 0.0049686233 0)
(10.01433 0.0049806175 0)
(10.014924 0.0049915709 0)
(10.015518 0.0050017739 0)
(10.016113 0.0050115385 0)
(10.016709 0.0050211507 0)
(10.017306 0.0050308278 0)
(10.017903 0.005040665 0)
(10.0185 0.0050506125 0)
(10.019096 0.005058683 0)
(10.019695 0.0050693954 0)
(10.020293 0.0050795821 0)
(10.020892 0.0050890141 0)
(10.021492 0.0050974397 0)
(10.022093 0.0051046577 0)
(10.022694 0.0051105872 0)
(10.023297 0.0051152982 0)
(10.0239 0.0051189949 0)
(10.024505 0.005121991 0)
(10.02511 0.005124634 0)
(10.025715 0.0051272056 0)
(10.026321 0.0051298982 0)
(10.026927 0.0051328867 0)
(10.027532 0.0051363416 0)
(10.028137 0.0051403676 0)
(10.028742 0.005144937 0)
(10.029346 0.0051499238 0)
(10.029951 0.0051551864 0)
(10.030557 0.0051606274 0)
(10.031163 0.0051661825 0)
(10.03177 0.0051717765 0)
(10.032378 0.0051772934 0)
(10.032988 0.005182585 0)
(10.033598 0.0051874994 0)
(10.03421 0.0051919133 0)
(10.034823 0.0051957397 0)
(10.035438 0.0051989312 0)
(10.036053 0.0052014796 0)
(10.036668 0.005203435 0)
(10.037282 0.0052002186 0)
(10.037896 0.0052022649 0)
(10.038511 0.0052039148 0)
(10.039127 0.0052045869 0)
(10.039742 0.0052041121 0)
(10.040356 0.0052032732 0)
(10.04097 0.0052018969 0)
(10.041584 0.0051989217 0)
(10.042198 0.0051941486 0)
(10.042811 0.0051879193 0)
(10.043422 0.0051799252 0)
(10.044032 0.0051693768 0)
(10.044642 0.0051558283 0)
(10.04525 0.0051393535 0)
(10.045855 0.0051201676 0)
(10.046458 0.0050983176 0)
(10.047058 0.0050736579 0)
(10.047655 0.0050459675 0)
(10.048248 0.0050150261 0)
(10.048837 0.0049806245 0)
(10.049421 0.0049424913 0)
(10.05 0.0049002224 0)
(10.050574 0.004853208 0)
(10.05114 0.004800636 0)
(10.051699 0.0047415235 0)
(10.052248 0.0046748008 0)
(10.052785 0.0045994216 0)
(10.053306 0.0045149265 0)
(10.053799 0.0044234163 0)
(10.054313 0.0043340375 0)
(10.054691 0.0041369274 0)
(10.055166 0.0040791256 0)
(10.05558 0.0040286788 0)
(10.056009 0.0039605344 0)
(10.056451 0.0038762181 0)
(10.056875 0.0037882683 0)
(10.057278 0.0036989936 0)
(10.057667 0.0036050688 0)
(10.058044 0.0035058147 0)
(10.058407 0.0034028926 0)
(10.058754 0.0032975836 0)
(10.059085 0.0031902938 0)
(10.059402 0.0030812103 0)
(10.059704 0.0029707096 0)
(10.059991 0.0028593198 0)
(10.060264 0.002747626 0)
(10.060523 0.002636195 0)
(10.060769 0.0025255899 0)
(10.061001 0.0024163344 0)
(10.06122 0.0023088964 0)
(10.061426 0.0022035971 0)
(10.061621 0.002100586 0)
(10.061804 0.0019998009 0)
(10.061975 0.0019010297 0)
(10.062135 0.0018039969 0)
(10.062283 0.0017086128 0)
(10.062417 0.0016153519 0)
(10.062537 0.0015259642 0)
(10.062665 0.001443229 0)
(10.000111 0.00094639548 0)
(10.000471 0.0017922792 0)
(10.001032 0.0024477148 0)
(10.001665 0.0029293007 0)
(10.002302 0.0032942723 0)
(10.002935 0.0035775715 0)
(10.003569 0.0037950644 0)
(10.004199 0.003960048 0)
(10.004822 0.004085496 0)
(10.005439 0.0041814794 0)
(10.006049 0.0042550675 0)
(10.006655 0.0043114643 0)
(10.007257 0.0043546908 0)
(10.007856 0.0043878472 0)
(10.008453 0.0044133037 0)
(10.009048 0.0044328869 0)
(10.009642 0.0044480184 0)
(10.010235 0.0044597906 0)
(10.010828 0.004469011 0)
(10.01142 0.0044762429 0)
(10.012013 0.0044818775 0)
(10.012606 0.0044862177 0)
(10.013199 0.0044895599 0)
(10.013791 0.0044922268 0)
(10.014385 0.0044945629 0)
(10.014978 0.0044968858 0)
(10.015573 0.0044994432 0)
(10.016169 0.0045023739 0)
(10.016766 0.0045057048 0)
(10.017363 0.0045093607 0)
(10.017961 0.0045132092 0)
(10.018557 0.0045147478 0)
(10.019155 0.0045195879 0)
(10.019754 0.0045241496 0)
(10.020353 0.0045282827 0)
(10.020952 0.0045318481 0)
(10.021553 0.0045347581 0)
(10.022154 0.0045370146 0)
(10.022757 0.0045387131 0)
(10.023361 0.0045400039 0)
(10.023966 0.0045410706 0)
(10.024571 0.004542117 0)
(10.025177 0.0045433309 0)
(10.025784 0.0045448519 0)
(10.02639 0.0045467915 0)
(10.026996 0.0045492359 0)
(10.027601 0.0045522162 0)
(10.028206 0.0045556736 0)
(10.028811 0.0045594896 0)
(10.029417 0.0045635497 0)
(10.030022 0.0045677858 0)
(10.030628 0.0045721599 0)
(10.031235 0.0045766213 0)
(10.031843 0.0045810794 0)
(10.032452 0.0045854191 0)
(10.033062 0.0045895343 0)
(10.033673 0.0045933631 0)
(10.034286 0.0045968842 0)
(10.034899 0.0046001001 0)
(10.035514 0.0046030042 0)
(10.03613 0.004605565 0)
(10.036743 0.0046038768 0)
(10.037357 0.0046068363 0)
(10.037971 0.0046092718 0)
(10.038587 0.0046107212 0)
(10.039202 0.0046110485 0)
(10.039815 0.004610729 0)
(10.040428 0.0046097032 0)
(10.041042 0.004607156 0)
(10.041656 0.0046027273 0)
(10.042268 0.0045966486 0)
(10.042878 0.0045888966 0)
(10.043488 0.0045790234 0)
(10.044098 0.0045666656 0)
(10.044705 0.0045517785 0)
(10.045311 0.0045344361 0)
(10.045914 0.0045145993 0)
(10.046514 0.0044920866 0)
(10.047112 0.0044666752 0)
(10.047705 0.0044381642 0)
(10.048295 0.0044063768 0)
(10.04888 0.0043710733 0)
(10.04946 0.0043318808 0)
(10.050034 0.0042882354 0)
(10.050601 0.004239424 0)
(10.05116 0.0041846664 0)
(10.05171 0.0041232555 0)
(10.052247 0.0040547099 0)
(10.05277 0.0039792881 0)
(10.053269 0.0038994405 0)
(10.053795 0.0038226788 0)
(10.054196 0.0036429976 0)
(10.054686 0.0035831581 0)
(10.055107 0.0035305344 0)
(10.05554 0.0034686868 0)
(10.055987 0.0033947183 0)
(10.056422 0.0033160008 0)
(10.056835 0.003235462 0)
(10.057234 0.0031513142 0)
(10.05762 0.0030626631 0)
(10.057994 0.002970492 0)
(10.058352 0.0028759352 0)
(10.058696 0.0027795805 0)
(10.059024 0.0026817707 0)
(10.059339 0.0025829238 0)
(10.059639 0.0024835435 0)
(10.059925 0.0023841679 0)
(10.060197 0.0022853165 0)
(10.060456 0.0021875005 0)
(10.060702 0.0020911792 0)
(10.060934 0.0019967334 0)
(10.061154 0.0019043807 0)
(10.061361 0.0018141688 0)
(10.061557 0.001725971 0)
(10.06174 0.0016395903 0)
(10.061912 0.00155488 0)
(10.062071 0.0014719781 0)
(10.062217 0.0013915555 0)
(10.06235 0.0013151927 0)
(10.062499 0.0012448267 0)
(10.00009 0.00081510096 0)
(10.000387 0.0015601 0)
(10.000866 0.0021639088 0)
(10.001429 0.0026253874 0)
(10.002017 0.002981091 0)
(10.002613 0.0032598855 0)
(10.003217 0.0034772669 0)
(10.003825 0.0036452425 0)
(10.004431 0.003775293 0)
(10.005035 0.0038768221 0)
(10.005636 0.0039567074 0)
(10.006235 0.004020026 0)
(10.006832 0.0040706714 0)
(10.007427 0.0041116414 0)
(10.008021 0.0041452222 0)